ITEM: TIMESTEP
0
ITEM: NUMBER OF ATOMS
900
ITEM: BOX BOUNDS pp pp pp
0.0000000000000000e+00 3.0000000000000000e+02
0.0000000000000000e+00 3.0000000000000000e+02
-5.0000000000000000e+00 5.0000000000000000e+00
ITEM: ATOMS id type xs ys zs
1 2 0 0 0.5
2 2 0.0333333 0 0.5
3 2 0.0666667 0 0.5
4 2 0.1 0 0.5
5 1 0.133333 0 0.5
6 2 0.166667 0 0.5
7 1 0.2 0 0.5
8 2 0.233333 0 0.5
9 2 0.266667 0 0.5
10 2 0.3 0 0.5
11 1 0.333333 0 0.5
12 2 0.366667 0 0.5
13 2 0.4 0 0.5
14 2 0.433333 0 0.5
15 2 0.466667 0 0.5
16 2 0.5 0 0.5
17 2 0.533333 0 0.5
18 2 0.566667 0 0.5
19 2 0.6 0 0.5
20 1 0.633333 0 0.5
21 2 0.666667 0 0.5
22 2 0.7 0 0.5
23 2 0.733333 0 0.5
24 2 0.766667 0 0.5
25 2 0.8 0 0.5
26 1 0.833333 0 0.5
27 1 0.866667 0 0.5
28 1 0.9 0 0.5
29 2 0.933333 0 0.5
30 2 0.966667 0 0.5
31 2 0 0.0333333 0.5
32 1 0.0333333 0.0333333 0.5
33 1 0.0666667 0.0333333 0.5
34 2 0.1 0.0333333 0.5
35 1 0.133333 0.0333333 0.5
36 1 0.166667 0.0333333 0.5
37 2 0.2 0.0333333 0.5
38 2 0.233333 0.0333333 0.5
39 1 0.266667 0.0333333 0.5
40 2 0.3 0.0333333 0.5
41 1 0.333333 0.0333333 0.5
42 2 0.366667 0.0333333 0.5
43 2 0.4 0.0333333 0.5
44 2 0.433333 0.0333333 0.5
45 2 0.466667 0.0333333 0.5
46 2 0.5 0.0333333 0.5
47 2 0.533333 0.0333333 0.5
48 1 0.566667 0.0333333 0.5
49 2 0.6 0.0333333 0.5
50 1 0.633333 0.0333333 0.5
51 2 0.666667 0.0333333 0.5
52 1 0.7 0.0333333 0.5
53 2 0.733333 0.0333333 0.5
54 2 0.766667 0.0333333 0.5
55 2 0.8 0.0333333 0.5
56 2 0.833333 0.0333333 0.5
57 2 0.866667 0.0333333 0.5
58 2 0.9 0.0333333 0.5
59 2 0.933333 0.0333333 0.5
60 1 0.966667 0.0333333 0.5
61 2 0 0.0666667 0.5
62 1 0.0333333 0.0666667 0.5
63 2 0.0666667 0.0666667 0.5
64 2 0.1 0.0666667 0.5
65 2 0.133333 0.0666667 0.5
66 2 0.166667 0.0666667 0.5
67 2 0.2 0.0666667 0.5
68 2 0.233333 0.0666667 0.5
69 2 0.266667 0.0666667 0.5
70 1 0.3 0.0666667 0.5
71 1 0.333333 0.0666667 0.5
72 1 0.366667 0.0666667 0.5
73 2 0.4 0.0666667 0.5
74 2 0.433333 0.0666667 0.5
75 1 0.466667 0.0666667 0.5
76 2 0.5 0.0666667 0.5
77 2 0.533333 0.0666667 0.5
78 2 0.566667 0.0666667 0.5
79 2 0.6 0.0666667 0.5
80 1 0.633333 0.0666667 0.5
81 1 0.666667 0.0666667 0.5
82 2 0.7 0.0666667 0.5
83 1 0.733333 0.0666667 0.5
84 1 0.766667 0.0666667 0.5
85 1 0.8 0.0666667 0.5
86 2 0.833333 0.0666667 0.5
87 2 0.866667 0.0666667 0.5
88 1 0.9 0.0666667 0.5
89 2 0.933333 0.0666667 0.5
90 2 0.966667 0.0666667 0.5
91 2 0 0.1 0.5
92 2 0.0333333 0.1 0.5
93 1 0.0666667 0.1 0.5
94 2 0.1 0.1 0.5
95 2 0.133333 0.1 0.5
96 2 0.166667 0.1 0.5
97 2 0.2 0.1 0.5
98 1 0.233333 0.1 0.5
99 2 0.266667 0.1 0.5
100 2 0.3 0.1 0.5
101 2 0.333333 0.1 0.5
102 1 0.366667 0.1 0.5
103 2 0.4 0.1 0.5
104 2 0.433333 0.1 0.5
105 1 0.466667 0.1 0.5
106 1 0.5 0.1 0.5
107 1 0.533333 0.1 0.5
108 2 0.566667 0.1 0.5
109 2 0.6 0.1 0.5
110 1 0.633333 0.1 0.5
111 2 0.666667 0.1 0.5
112 1 0.7 0.1 0.5
113 2 0.733333 0.1 0.5
114 1 0.766667 0.1 0.5
115 2 0.8 0.1 0.5
116 1 0.833333 0.1 0.5
117 2 0.866667 0.1 0.5
118 2 0.9 0.1 0.5
119 2 0.933333 0.1 0.5
120 2 0.966667 0.1 0.5
121 2 0 0.133333 0.5
122 2 0.0333333 0.133333 0.5
123 1 0.0666667 0.133333 0.5
124 2 0.1 0.133333 0.5
125 1 0.133333 0.133333 0.5
126 1 0.166667 0.133333 0.5
127 2 0.2 0.133333 0.5
128 2 0.233333 0.133333 0.5
129 2 0.266667 0.133333 0.5
130 2 0.3 0.133333 0.5
131 2 0.333333 0.133333 0.5
132 1 0.366667 0.133333 0.5
133 1 0.4 0.133333 0.5
134 1 0.433333 0.133333 0.5
135 1 0.466667 0.133333 0.5
136 2 0.5 0.133333 0.5
137 1 0.533333 0.133333 0.5
138 1 0.566667 0.133333 0.5
139 2 0.6 0.133333 0.5
140 2 0.633333 0.133333 0.5
141 2 0.666667 0.133333 0.5
142 2 0.7 0.133333 0.5
143 1 0.733333 0.133333 0.5
144 2 0.766667 0.133333 0.5
145 2 0.8 0.133333 0.5
146 2 0.833333 0.133333 0.5
147 1 0.866667 0.133333 0.5
148 2 0.9 0.133333 0.5
149 2 0.933333 0.133333 0.5
150 2 0.966667 0.133333 0.5
151 1 0 0.166667 0.5
152 2 0.0333333 0.166667 0.5
153 2 0.0666667 0.166667 0.5
154 2 0.1 0.166667 0.5
155 2 0.133333 0.166667 0.5
156 1 0.166667 0.166667 0.5
157 2 0.2 0.166667 0.5
158 2 0.233333 0.166667 0.5
159 2 0.266667 0.166667 0.5
160 1 0.3 0.166667 0.5
161 2 0.333333 0.166667 0.5
162 2 0.366667 0.166667 0.5
163 2 0.4 0.166667 0.5
164 1 0.433333 0.166667 0.5
165 2 0.466667 0.166667 0.5
166 2 0.5 0.166667 0.5
167 1 0.533333 0.166667 0.5
168 2 0.566667 0.166667 0.5
169 2 0.6 0.166667 0.5
170 2 0.633333 0.166667 0.5
171 2 0.666667 0.166667 0.5
172 2 0.7 0.166667 0.5
173 2 0.733333 0.166667 0.5
174 1 0.766667 0.166667 0.5
175 2 0.8 0.166667 0.5
176 1 0.833333 0.166667 0.5
177 2 0.866667 0.166667 0.5
178 1 0.9 0.166667 0.5
179 2 0.933333 0.166667 0.5
180 2 0.966667 0.166667 0.5
181 2 0 0.2 0.5
182 2 0.0333333 0.2 0.5
183 2 0.0666667 0.2 0.5
184 2 0.1 0.2 0.5
185 1 0.133333 0.2 0.5
186 2 0.166667 0.2 0.5
187 2 0.2 0.2 0.5
188 2 0.233333 0.2 0.5
189 2 0.266667 0.2 0.5
190 2 0.3 0.2 0.5
191 2 0.333333 0.2 0.5
192 2 0.366667 0.2 0.5
193 2 0.4 0.2 0.5
194 2 0.433333 0.2 0.5
195 2 0.466667 0.2 0.5
196 2 0.5 0.2 0.5
197 2 0.533333 0.2 0.5
198 2 0.566667 0.2 0.5
199 1 0.6 0.2 0.5
200 2 0.633333 0.2 0.5
201 2 0.666667 0.2 0.5
202 2 0.7 0.2 0.5
203 2 0.733333 0.2 0.5
204 1 0.766667 0.2 0.5
205 2 0.8 0.2 0.5
206 1 0.833333 0.2 0.5
207 1 0.866667 0.2 0.5
208 2 0.9 0.2 0.5
209 2 0.933333 0.2 0.5
210 2 0.966667 0.2 0.5
211 1 0 0.233333 0.5
212 2 0.0333333 0.233333 0.5
213 2 0.0666667 0.233333 0.5
214 1 0.1 0.233333 0.5
215 2 0.133333 0.233333 0.5
216 2 0.166667 0.233333 0.5
217 2 0.2 0.233333 0.5
218 2 0.233333 0.233333 0.5
219 2 0.266667 0.233333 0.5
220 2 0.3 0.233333 0.5
221 2 0.333333 0.233333 0.5
222 2 0.366667 0.233333 0.5
223 2 0.4 0.233333 0.5
224 1 0.433333 0.233333 0.5
225 2 0.466667 0.233333 0.5
226 1 0.5 0.233333 0.5
227 2 0.533333 0.233333 0.5
228 2 0.566667 0.233333 0.5
229 2 0.6 0.233333 0.5
230 2 0.633333 0.233333 0.5
231 2 0.666667 0.233333 0.5
232 2 0.7 0.233333 0.5
233 2 0.733333 0.233333 0.5
234 1 0.766667 0.233333 0.5
235 2 0.8 0.233333 0.5
236 1 0.833333 0.233333 0.5
237 2 0.866667 0.233333 0.5
238 1 0.9 0.233333 0.5
239 2 0.933333 0.233333 0.5
240 2 0.966667 0.233333 0.5
241 2 0 0.266667 0.5
242 1 0.0333333 0.266667 0.5
243 2 0.0666667 0.266667 0.5
244 2 0.1 0.266667 0.5
245 1 0.133333 0.266667 0.5
246 1 0.166667 0.266667 0.5
247 1 0.2 0.266667 0.5
248 2 0.233333 0.266667 0.5
249 2 0.266667 0.266667 0.5
250 1 0.3 0.266667 0.5
251 2 0.333333 0.266667 0.5
252 2 0.366667 0.266667 0.5
253 1 0.4 0.266667 0.5
254 1 0.433333 0.266667 0.5
255 1 0.466667 0.266667 0.5
256 2 0.5 0.266667 0.5
257 2 0.533333 0.266667 0.5
258 2 0.566667 0.266667 0.5
259 2 0.6 0.266667 0.5
260 1 0.633333 0.266667 0.5
261 2 0.666667 0.266667 0.5
262 2 0.7 0.266667 0.5
263 2 0.733333 0.266667 0.5
264 2 0.766667 0.266667 0.5
265 1 0.8 0.266667 0.5
266 2 0.833333 0.266667 0.5
267 2 0.866667 0.266667 0.5
268 1 0.9 0.266667 0.5
269 2 0.933333 0.266667 0.5
270 2 0.966667 0.266667 0.5
271 2 0 0.3 0.5
272 2 0.0333333 0.3 0.5
273 1 0.0666667 0.3 0.5
274 2 0.1 0.3 0.5
275 1 0.133333 0.3 0.5
276 2 0.166667 0.3 0.5
277 1 0.2 0.3 0.5
278 1 0.233333 0.3 0.5
279 1 0.266667 0.3 0.5
280 2 0.3 0.3 0.5
281 1 0.333333 0.3 0.5
282 2 0.366667 0.3 0.5
283 1 0.4 0.3 0.5
284 1 0.433333 0.3 0.5
285 2 0.466667 0.3 0.5
286 2 0.5 0.3 0.5
287 2 0.533333 0.3 0.5
288 1 0.566667 0.3 0.5
289 2 0.6 0.3 0.5
290 2 0.633333 0.3 0.5
291 1 0.666667 0.3 0.5
292 1 0.7 0.3 0.5
293 2 0.733333 0.3 0.5
294 1 0.766667 0.3 0.5
295 1 0.8 0.3 0.5
296 2 0.833333 0.3 0.5
297 2 0.866667 0.3 0.5
298 1 0.9 0.3 0.5
299 2 0.933333 0.3 0.5
300 2 0.966667 0.3 0.5
301 1 0 0.333333 0.5
302 2 0.0333333 0.333333 0.5
303 2 0.0666667 0.333333 0.5
304 2 0.1 0.333333 0.5
305 2 0.133333 0.333333 0.5
306 2 0.166667 0.333333 0.5
307 2 0.2 0.333333 0.5
308 2 0.233333 0.333333 0.5
309 2 0.266667 0.333333 0.5
310 2 0.3 0.333333 0.5
311 1 0.333333 0.333333 0.5
312 1 0.366667 0.333333 0.5
313 2 0.4 0.333333 0.5
314 2 0.433333 0.333333 0.5
315 2 0.466667 0.333333 0.5
316 2 0.5 0.333333 0.5
317 2 0.533333 0.333333 0.5
318 2 0.566667 0.333333 0.5
319 2 0.6 0.333333 0.5
320 2 0.633333 0.333333 0.5
321 2 0.666667 0.333333 0.5
322 2 0.7 0.333333 0.5
323 1 0.733333 0.333333 0.5
324 1 0.766667 0.333333 0.5
325 1 0.8 0.333333 0.5
326 2 0.833333 0.333333 0.5
327 2 0.866667 0.333333 0.5
328 2 0.9 0.333333 0.5
329 2 0.933333 0.333333 0.5
330 1 0.966667 0.333333 0.5
331 1 0 0.366667 0.5
332 2 0.0333333 0.366667 0.5
333 2 0.0666667 0.366667 0.5
334 2 0.1 0.366667 0.5
335 1 0.133333 0.366667 0.5
336 2 0.166667 0.366667 0.5
337 1 0.2 0.366667 0.5
338 2 0.233333 0.366667 0.5
339 2 0.266667 0.366667 0.5
340 1 0.3 0.366667 0.5
341 1 0.333333 0.366667 0.5
342 1 0.366667 0.366667 0.5
343 2 0.4 0.366667 0.5
344 2 0.433333 0.366667 0.5
345 2 0.466667 0.366667 0.5
346 2 0.5 0.366667 0.5
347 1 0.533333 0.366667 0.5
348 1 0.566667 0.366667 0.5
349 2 0.6 0.366667 0.5
350 1 0.633333 0.366667 0.5
351 2 0.666667 0.366667 0.5
352 2 0.7 0.366667 0.5
353 2 0.733333 0.366667 0.5
354 2 0.766667 0.366667 0.5
355 1 0.8 0.366667 0.5
356 1 0.833333 0.366667 0.5
357 2 0.866667 0.366667 0.5
358 2 0.9 0.366667 0.5
359 1 0.933333 0.366667 0.5
360 2 0.966667 0.366667 0.5
361 2 0 0.4 0.5
362 1 0.0333333 0.4 0.5
363 2 0.0666667 0.4 0.5
364 2 0.1 0.4 0.5
365 2 0.133333 0.4 0.5
366 2 0.166667 0.4 0.5
367 2 0.2 0.4 0.5
368 2 0.233333 0.4 0.5
369 2 0.266667 0.4 0.5
370 1 0.3 0.4 0.5
371 2 0.333333 0.4 0.5
372 2 0.366667 0.4 0.5
373 2 0.4 0.4 0.5
374 2 0.433333 0.4 0.5
375 2 0.466667 0.4 0.5
376 2 0.5 0.4 0.5
377 2 0.533333 0.4 0.5
378 2 0.566667 0.4 0.5
379 1 0.6 0.4 0.5
380 2 0.633333 0.4 0.5
381 2 0.666667 0.4 0.5
382 2 0.7 0.4 0.5
383 2 0.733333 0.4 0.5
384 2 0.766667 0.4 0.5
385 2 0.8 0.4 0.5
386 2 0.833333 0.4 0.5
387 2 0.866667 0.4 0.5
388 1 0.9 0.4 0.5
389 2 0.933333 0.4 0.5
390 2 0.966667 0.4 0.5
391 2 0 0.433333 0.5
392 2 0.0333333 0.433333 0.5
393 2 0.0666667 0.433333 0.5
394 1 0.1 0.433333 0.5
395 2 0.133333 0.433333 0.5
396 2 0.166667 0.433333 0.5
397 1 0.2 0.433333 0.5
398 2 0.233333 0.433333 0.5
399 1 0.266667 0.433333 0.5
400 2 0.3 0.433333 0.5
401 1 0.333333 0.433333 0.5
402 1 0.366667 0.433333 0.5
403 2 0.4 0.433333 0.5
404 2 0.433333 0.433333 0.5
405 1 0.466667 0.433333 0.5
406 1 0.5 0.433333 0.5
407 2 0.533333 0.433333 0.5
408 2 0.566667 0.433333 0.5
409 2 0.6 0.433333 0.5
410 2 0.633333 0.433333 0.5
411 2 0.666667 0.433333 0.5
412 1 0.7 0.433333 0.5
413 2 0.733333 0.433333 0.5
414 1 0.766667 0.433333 0.5
415 2 0.8 0.433333 0.5
416 1 0.833333 0.433333 0.5
417 2 0.866667 0.433333 0.5
418 1 0.9 0.433333 0.5
419 2 0.933333 0.433333 0.5
420 2 0.966667 0.433333 0.5
421 2 0 0.466667 0.5
422 2 0.0333333 0.466667 0.5
423 2 0.0666667 0.466667 0.5
424 2 0.1 0.466667 0.5
425 2 0.133333 0.466667 0.5
426 1 0.166667 0.466667 0.5
427 2 0.2 0.466667 0.5
428 2 0.233333 0.466667 0.5
429 1 0.266667 0.466667 0.5
430 1 0.3 0.466667 0.5
431 2 0.333333 0.466667 0.5
432 1 0.366667 0.466667 0.5
433 2 0.4 0.466667 0.5
434 2 0.433333 0.466667 0.5
435 2 0.466667 0.466667 0.5
436 2 0.5 0.466667 0.5
437 2 0.533333 0.466667 0.5
438 2 0.566667 0.466667 0.5
439 1 0.6 0.466667 0.5
440 2 0.633333 0.466667 0.5
441 2 0.666667 0.466667 0.5
442 1 0.7 0.466667 0.5
443 1 0.733333 0.466667 0.5
444 2 0.766667 0.466667 0.5
445 2 0.8 0.466667 0.5
446 2 0.833333 0.466667 0.5
447 2 0.866667 0.466667 0.5
448 2 0.9 0.466667 0.5
449 1 0.933333 0.466667 0.5
450 2 0.966667 0.466667 0.5
451 2 0 0.5 0.5
452 2 0.0333333 0.5 0.5
453 2 0.0666667 0.5 0.5
454 2 0.1 0.5 0.5
455 2 0.133333 0.5 0.5
456 2 0.166667 0.5 0.5
457 2 0.2 0.5 0.5
458 2 0.233333 0.5 0.5
459 1 0.266667 0.5 0.5
460 2 0.3 0.5 0.5
461 2 0.333333 0.5 0.5
462 2 0.366667 0.5 0.5
463 2 0.4 0.5 0.5
464 2 0.433333 0.5 0.5
465 2 0.466667 0.5 0.5
466 2 0.5 0.5 0.5
467 1 0.533333 0.5 0.5
468 2 0.566667 0.5 0.5
469 1 0.6 0.5 0.5
470 2 0.633333 0.5 0.5
471 2 0.666667 0.5 0.5
472 2 0.7 0.5 0.5
473 2 0.733333 0.5 0.5
474 1 0.766667 0.5 0.5
475 2 0.8 0.5 0.5
476 1 0.833333 0.5 0.5
477 1 0.866667 0.5 0.5
478 1 0.9 0.5 0.5
479 1 0.933333 0.5 0.5
480 2 0.966667 0.5 0.5
481 2 0 0.533333 0.5
482 2 0.0333333 0.533333 0.5
483 2 0.0666667 0.533333 0.5
484 2 0.1 0.533333 0.5
485 2 0.133333 0.533333 0.5
486 2 0.166667 0.533333 0.5
487 1 0.2 0.533333 0.5
488 1 0.233333 0.533333 0.5
489 2 0.266667 0.533333 0.5
490 1 0.3 0.533333 0.5
491 1 0.333333 0.533333 0.5
492 2 0.366667 0.533333 0.5
493 2 0.4 0.533333 0.5
494 1 0.433333 0.533333 0.5
495 1 0.466667 0.533333 0.5
496 2 0.5 0.533333 0.5
497 2 0.533333 0.533333 0.5
498 2 0.566667 0.533333 0.5
499 2 0.6 0.533333 0.5
500 1 0.633333 0.533333 0.5
501 2 0.666667 0.533333 0.5
502 1 0.7 0.533333 0.5
503 2 0.733333 0.533333 0.5
504 1 0.766667 0.533333 0.5
505 2 0.8 0.533333 0.5
506 2 0.833333 0.533333 0.5
507 2 0.866667 0.533333 0.5
508 2 0.9 0.533333 0.5
509 2 0.933333 0.533333 0.5
510 2 0.966667 0.533333 0.5
511 1 0 0.566667 0.5
512 1 0.0333333 0.566667 0.5
513 1 0.0666667 0.566667 0.5
514 1 0.1 0.566667 0.5
515 2 0.133333 0.566667 0.5
516 1 0.166667 0.566667 0.5
517 1 0.2 0.566667 0.5
518 2 0.233333 0.566667 0.5
519 2 0.266667 0.566667 0.5
520 1 0.3 0.566667 0.5
521 2 0.333333 0.566667 0.5
522 1 0.366667 0.566667 0.5
523 1 0.4 0.566667 0.5
524 1 0.433333 0.566667 0.5
525 2 0.466667 0.566667 0.5
526 2 0.5 0.566667 0.5
527 2 0.533333 0.566667 0.5
528 2 0.566667 0.566667 0.5
529 2 0.6 0.566667 0.5
530 2 0.633333 0.566667 0.5
531 1 0.666667 0.566667 0.5
532 1 0.7 0.566667 0.5
533 2 0.733333 0.566667 0.5
534 1 0.766667 0.566667 0.5
535 2 0.8 0.566667 0.5
536 2 0.833333 0.566667 0.5
537 2 0.866667 0.566667 0.5
538 1 0.9 0.566667 0.5
539 1 0.933333 0.566667 0.5
540 2 0.966667 0.566667 0.5
541 1 0 0.6 0.5
542 2 0.0333333 0.6 0.5
543 2 0.0666667 0.6 0.5
544 2 0.1 0.6 0.5
545 1 0.133333 0.6 0.5
546 2 0.166667 0.6 0.5
547 2 0.2 0.6 0.5
548 1 0.233333 0.6 0.5
549 2 0.266667 0.6 0.5
550 1 0.3 0.6 0.5
551 2 0.333333 0.6 0.5
552 1 0.366667 0.6 0.5
553 2 0.4 0.6 0.5
554 1 0.433333 0.6 0.5
555 1 0.466667 0.6 0.5
556 2 0.5 0.6 0.5
557 2 0.533333 0.6 0.5
558 2 0.566667 0.6 0.5
559 2 0.6 0.6 0.5
560 1 0.633333 0.6 0.5
561 2 0.666667 0.6 0.5
562 2 0.7 0.6 0.5
563 2 0.733333 0.6 0.5
564 2 0.766667 0.6 0.5
565 2 0.8 0.6 0.5
566 2 0.833333 0.6 0.5
567 2 0.866667 0.6 0.5
568 1 0.9 0.6 0.5
569 1 0.933333 0.6 0.5
570 2 0.966667 0.6 0.5
571 1 0 0.633333 0.5
572 2 0.0333333 0.633333 0.5
573 2 0.0666667 0.633333 0.5
574 2 0.1 0.633333 0.5
575 2 0.133333 0.633333 0.5
576 2 0.166667 0.633333 0.5
577 2 0.2 0.633333 0.5
578 2 0.233333 0.633333 0.5
579 1 0.266667 0.633333 0.5
580 2 0.3 0.633333 0.5
581 1 0.333333 0.633333 0.5
582 2 0.366667 0.633333 0.5
583 2 0.4 0.633333 0.5
584 1 0.433333 0.633333 0.5
585 1 0.466667 0.633333 0.5
586 1 0.5 0.633333 0.5
587 2 0.533333 0.633333 0.5
588 2 0.566667 0.633333 0.5
589 2 0.6 0.633333 0.5
590 2 0.633333 0.633333 0.5
591 1 0.666667 0.633333 0.5
592 1 0.7 0.633333 0.5
593 2 0.733333 0.633333 0.5
594 1 0.766667 0.633333 0.5
595 2 0.8 0.633333 0.5
596 2 0.833333 0.633333 0.5
597 2 0.866667 0.633333 0.5
598 2 0.9 0.633333 0.5
599 2 0.933333 0.633333 0.5
600 2 0.966667 0.633333 0.5
601 1 0 0.666667 0.5
602 1 0.0333333 0.666667 0.5
603 2 0.0666667 0.666667 0.5
604 2 0.1 0.666667 0.5
605 2 0.133333 0.666667 0.5
606 2 0.166667 0.666667 0.5
607 1 0.2 0.666667 0.5
608 2 0.233333 0.666667 0.5
609 1 0.266667 0.666667 0.5
610 2 0.3 0.666667 0.5
611 2 0.333333 0.666667 0.5
612 2 0.366667 0.666667 0.5
613 2 0.4 0.666667 0.5
614 2 0.433333 0.666667 0.5
615 2 0.466667 0.666667 0.5
616 1 0.5 0.666667 0.5
617 1 0.533333 0.666667 0.5
618 1 0.566667 0.666667 0.5
619 2 0.6 0.666667 0.5
620 2 0.633333 0.666667 0.5
621 2 0.666667 0.666667 0.5
622 2 0.7 0.666667 0.5
623 2 0.733333 0.666667 0.5
624 1 0.766667 0.666667 0.5
625 2 0.8 0.666667 0.5
626 2 0.833333 0.666667 0.5
627 2 0.866667 0.666667 0.5
628 1 0.9 0.666667 0.5
629 1 0.933333 0.666667 0.5
630 2 0.966667 0.666667 0.5
631 2 0 0.7 0.5
632 2 0.0333333 0.7 0.5
633 1 0.0666667 0.7 0.5
634 2 0.1 0.7 0.5
635 1 0.133333 0.7 0.5
636 2 0.166667 0.7 0.5
637 1 0.2 0.7 0.5
638 1 0.233333 0.7 0.5
639 2 0.266667 0.7 0.5
640 2 0.3 0.7 0.5
641 2 0.333333 0.7 0.5
642 2 0.366667 0.7 0.5
643 2 0.4 0.7 0.5
644 2 0.433333 0.7 0.5
645 2 0.466667 0.7 0.5
646 2 0.5 0.7 0.5
647 2 0.533333 0.7 0.5
648 1 0.566667 0.7 0.5
649 2 0.6 0.7 0.5
650 1 0.633333 0.7 0.5
651 2 0.666667 0.7 0.5
652 2 0.7 0.7 0.5
653 2 0.733333 0.7 0.5
654 2 0.766667 0.7 0.5
655 1 0.8 0.7 0.5
656 1 0.833333 0.7 0.5
657 2 0.866667 0.7 0.5
658 2 0.9 0.7 0.5
659 2 0.933333 0.7 0.5
660 2 0.966667 0.7 0.5
661 1 0 0.733333 0.5
662 2 0.0333333 0.733333 0.5
663 2 0.0666667 0.733333 0.5
664 2 0.1 0.733333 0.5
665 2 0.133333 0.733333 0.5
666 2 0.166667 0.733333 0.5
667 2 0.2 0.733333 0.5
668 1 0.233333 0.733333 0.5
669 1 0.266667 0.733333 0.5
670 2 0.3 0.733333 0.5
671 2 0.333333 0.733333 0.5
672 1 0.366667 0.733333 0.5
673 2 0.4 0.733333 0.5
674 2 0.433333 0.733333 0.5
675 2 0.466667 0.733333 0.5
676 2 0.5 0.733333 0.5
677 2 0.533333 0.733333 0.5
678 2 0.566667 0.733333 0.5
679 2 0.6 0.733333 0.5
680 2 0.633333 0.733333 0.5
681 2 0.666667 0.733333 0.5
682 1 0.7 0.733333 0.5
683 1 0.733333 0.733333 0.5
684 2 0.766667 0.733333 0.5
685 1 0.8 0.733333 0.5
686 1 0.833333 0.733333 0.5
687 1 0.866667 0.733333 0.5
688 2 0.9 0.733333 0.5
689 2 0.933333 0.733333 0.5
690 2 0.966667 0.733333 0.5
691 1 0 0.766667 0.5
692 2 0.0333333 0.766667 0.5
693 2 0.0666667 0.766667 0.5
694 2 0.1 0.766667 0.5
695 2 0.133333 0.766667 0.5
696 1 0.166667 0.766667 0.5
697 2 0.2 0.766667 0.5
698 2 0.233333 0.766667 0.5
699 2 0.266667 0.766667 0.5
700 2 0.3 0.766667 0.5
701 2 0.333333 0.766667 0.5
702 2 0.366667 0.766667 0.5
703 2 0.4 0.766667 0.5
704 2 0.433333 0.766667 0.5
705 2 0.466667 0.766667 0.5
706 2 0.5 0.766667 0.5
707 1 0.533333 0.766667 0.5
708 2 0.566667 0.766667 0.5
709 2 0.6 0.766667 0.5
710 2 0.633333 0.766667 0.5
711 1 0.666667 0.766667 0.5
712 2 0.7 0.766667 0.5
713 2 0.733333 0.766667 0.5
714 1 0.766667 0.766667 0.5
715 2 0.8 0.766667 0.5
716 2 0.833333 0.766667 0.5
717 2 0.866667 0.766667 0.5
718 2 0.9 0.766667 0.5
719 1 0.933333 0.766667 0.5
720 2 0.966667 0.766667 0.5
721 2 0 0.8 0.5
722 2 0.0333333 0.8 0.5
723 2 0.0666667 0.8 0.5
724 2 0.1 0.8 0.5
725 1 0.133333 0.8 0.5
726 2 0.166667 0.8 0.5
727 1 0.2 0.8 0.5
728 2 0.233333 0.8 0.5
729 2 0.266667 0.8 0.5
730 2 0.3 0.8 0.5
731 1 0.333333 0.8 0.5
732 2 0.366667 0.8 0.5
733 2 0.4 0.8 0.5
734 2 0.433333 0.8 0.5
735 2 0.466667 0.8 0.5
736 2 0.5 0.8 0.5
737 1 0.533333 0.8 0.5
738 2 0.566667 0.8 0.5
739 2 0.6 0.8 0.5
740 2 0.633333 0.8 0.5
741 2 0.666667 0.8 0.5
742 2 0.7 0.8 0.5
743 2 0.733333 0.8 0.5
744 2 0.766667 0.8 0.5
745 2 0.8 0.8 0.5
746 1 0.833333 0.8 0.5
747 2 0.866667 0.8 0.5
748 2 0.9 0.8 0.5
749 2 0.933333 0.8 0.5
750 2 0.966667 0.8 0.5
751 2 0 0.833333 0.5
752 2 0.0333333 0.833333 0.5
753 2 0.0666667 0.833333 0.5
754 2 0.1 0.833333 0.5
755 2 0.133333 0.833333 0.5
756 2 0.166667 0.833333 0.5
757 2 0.2 0.833333 0.5
758 2 0.233333 0.833333 0.5
759 2 0.266667 0.833333 0.5
760 2 0.3 0.833333 0.5
761 2 0.333333 0.833333 0.5
762 1 0.366667 0.833333 0.5
763 1 0.4 0.833333 0.5
764 1 0.433333 0.833333 0.5
765 1 0.466667 0.833333 0.5
766 2 0.5 0.833333 0.5
767 1 0.533333 0.833333 0.5
768 1 0.566667 0.833333 0.5
769 2 0.6 0.833333 0.5
770 1 0.633333 0.833333 0.5
771 1 0.666667 0.833333 0.5
772 1 0.7 0.833333 0.5
773 1 0.733333 0.833333 0.5
774 2 0.766667 0.833333 0.5
775 1 0.8 0.833333 0.5
776 2 0.833333 0.833333 0.5
777 2 0.866667 0.833333 0.5
778 2 0.9 0.833333 0.5
779 2 0.933333 0.833333 0.5
780 2 0.966667 0.833333 0.5
781 2 0 0.866667 0.5
782 2 0.0333333 0.866667 0.5
783 2 0.0666667 0.866667 0.5
784 1 0.1 0.866667 0.5
785 1 0.133333 0.866667 0.5
786 2 0.166667 0.866667 0.5
787 2 0.2 0.866667 0.5
788 2 0.233333 0.866667 0.5
789 2 0.266667 0.866667 0.5
790 2 0.3 0.866667 0.5
791 2 0.333333 0.866667 0.5
792 1 0.366667 0.866667 0.5
793 2 0.4 0.866667 0.5
794 1 0.433333 0.866667 0.5
795 1 0.466667 0.866667 0.5
796 2 0.5 0.866667 0.5
797 1 0.533333 0.866667 0.5
798 1 0.566667 0.866667 0.5
799 2 0.6 0.866667 0.5
800 1 0.633333 0.866667 0.5
801 2 0.666667 0.866667 0.5
802 2 0.7 0.866667 0.5
803 2 0.733333 0.866667 0.5
804 1 0.766667 0.866667 0.5
805 2 0.8 0.866667 0.5
806 2 0.833333 0.866667 0.5
807 2 0.866667 0.866667 0.5
808 2 0.9 0.866667 0.5
809 2 0.933333 0.866667 0.5
810 2 0.966667 0.866667 0.5
811 1 0 0.9 0.5
812 2 0.0333333 0.9 0.5
813 1 0.0666667 0.9 0.5
814 1 0.1 0.9 0.5
815 2 0.133333 0.9 0.5
816 2 0.166667 0.9 0.5
817 2 0.2 0.9 0.5
818 2 0.233333 0.9 0.5
819 2 0.266667 0.9 0.5
820 1 0.3 0.9 0.5
821 1 0.333333 0.9 0.5
822 2 0.366667 0.9 0.5
823 2 0.4 0.9 0.5
824 2 0.433333 0.9 0.5
825 2 0.466667 0.9 0.5
826 2 0.5 0.9 0.5
827 2 0.533333 0.9 0.5
828 1 0.566667 0.9 0.5
829 2 0.6 0.9 0.5
830 2 0.633333 0.9 0.5
831 1 0.666667 0.9 0.5
832 2 0.7 0.9 0.5
833 2 0.733333 0.9 0.5
834 2 0.766667 0.9 0.5
835 2 0.8 0.9 0.5
836 2 0.833333 0.9 0.5
837 2 0.866667 0.9 0.5
838 2 0.9 0.9 0.5
839 2 0.933333 0.9 0.5
840 1 0.966667 0.9 0.5
841 2 0 0.933333 0.5
842 2 0.0333333 0.933333 0.5
843 1 0.0666667 0.933333 0.5
844 1 0.1 0.933333 0.5
845 1 0.133333 0.933333 0.5
846 2 0.166667 0.933333 0.5
847 2 0.2 0.933333 0.5
848 1 0.233333 0.933333 0.5
849 2 0.266667 0.933333 0.5
850 2 0.3 0.933333 0.5
851 2 0.333333 0.933333 0.5
852 2 0.366667 0.933333 0.5
853 1 0.4 0.933333 0.5
854 2 0.433333 0.933333 0.5
855 2 0.466667 0.933333 0.5
856 2 0.5 0.933333 0.5
857 1 0.533333 0.933333 0.5
858 2 0.566667 0.933333 0.5
859 1 0.6 0.933333 0.5
860 1 0.633333 0.933333 0.5
861 2 0.666667 0.933333 0.5
862 1 0.7 0.933333 0.5
863 2 0.733333 0.933333 0.5
864 2 0.766667 0.933333 0.5
865 1 0.8 0.933333 0.5
866 2 0.833333 0.933333 0.5
867 2 0.866667 0.933333 0.5
868 1 0.9 0.933333 0.5
869 1 0.933333 0.933333 0.5
870 2 0.966667 0.933333 0.5
871 2 0 0.966667 0.5
872 1 0.0333333 0.966667 0.5
873 2 0.0666667 0.966667 0.5
874 2 0.1 0.966667 0.5
875 1 0.133333 0.966667 0.5
876 2 0.166667 0.966667 0.5
877 1 0.2 0.966667 0.5
878 1 0.233333 0.966667 0.5
879 2 0.266667 0.966667 0.5
880 2 0.3 0.966667 0.5
881 2 0.333333 0.966667 0.5
882 2 0.366667 0.966667 0.5
883 2 0.4 0.966667 0.5
884 2 0.433333 0.966667 0.5
885 2 0.466667 0.966667 0.5
886 2 0.5 0.966667 0.5
887 1 0.533333 0.966667 0.5
888 1 0.566667 0.966667 0.5
889 2 0.6 0.966667 0.5
890 2 0.633333 0.966667 0.5
891 2 0.666667 0.966667 0.5
892 2 0.7 0.966667 0.5
893 2 0.733333 0.966667 0.5
894 1 0.766667 0.966667 0.5
895 1 0.8 0.966667 0.5
896 2 0.833333 0.966667 0.5
897 2 0.866667 0.966667 0.5
898 2 0.9 0.966667 0.5
899 1 0.933333 0.966667 0.5
900 1 0.966667 0.966667 0.5
ITEM: TIMESTEP
1000
ITEM: NUMBER OF ATOMS
900
ITEM: BOX BOUNDS pp pp pp
-7.5532038728496502e+00 3.0755320387284797e+02
-7.5532038728496502e+00 3.0755320387284797e+02
-5.0000000000000000e+00 5.0000000000000000e+00
ITEM: ATOMS id type xs ys zs
1 2 0.997076 0.987423 0.5
2 2 0.0410582 0.982292 0.5
3 2 0.102447 0.0175889 0.5
4 2 0.134524 0.969474 0.5
5 1 0.123351 0.00863688 0.5
6 2 0.156838 0.966347 0.5
7 1 0.198641 0.994257 0.5
8 2 0.206349 0.982304 0.5
9 2 0.285098 0.0107245 0.5
10 2 0.297697 0.987466 0.5
11 1 0.338253 0.00396083 0.5
12 2 0.359599 0.975246 0.5
13 2 0.383848 0.980368 0.5
14 2 0.464059 0.991035 0.5
15 2 0.433046 0.0354763 0.5
16 2 0.47944 0.00744417 0.5
17 2 0.527357 0.018068 0.5
18 2 0.592048 0.0252238 0.5
19 2 0.614249 0.970702 0.5
20 1 0.635878 0.00104383 0.5
21 2 0.671679 0.0327487 0.5
22 2 0.680804 0.00100005 0.5
23 2 0.755694 0.981399 0.5
24 2 0.752337 0.990232 0.5
25 2 0.819987 0.963854 0.5
26 1 0.844581 0.998791 0.5
27 1 0.878253 0.000723186 0.5
28 1 0.899533 0.987231 0.5
29 2 0.920363 0.0309869 0.5
30 2 0.934056 0.0315695 0.5
31 2 0.0361572 0.0459554 0.5
32 1 0.0359017 0.0328061 0.5
33 1 0.0554833 0.0410029 0.5
34 2 0.112671 0.0220081 0.5
35 1 0.127666 0.0271693 0.5
36 1 0.169446 0.0319931 0.5
37 2 0.171698 0.00338482 0.5
38 2 0.208438 0.994758 0.5
39 1 0.253921 0.0442409 0.5
40 2 0.281676 0.0312841 0.5
41 1 0.328473 0.0458947 0.5
42 2 0.361616 0.00707773 0.5
43 2 0.365752 0.0268308 0.5
44 2 0.413716 0.0512558 0.5
45 2 0.479797 0.0353069 0.5
46 2 0.512751 0.0645009 0.5
47 2 0.55934 0.0432631 0.5
48 1 0.564136 0.0342183 0.5
49 2 0.623259 0.04071 0.5
50 1 0.632351 0.044754 0.5
51 2 0.646365 0.0406195 0.5
52 1 0.689727 0.0211278 0.5
53 2 0.724737 0.0171536 0.5
54 2 0.795836 0.0285051 0.5
55 2 0.768396 0.048498 0.5
56 2 0.806674 0.0484674 0.5
57 2 0.839568 0.0656682 0.5
58 2 0.900078 0.999324 0.5
59 2 0.938902 0.0149084 0.5
60 1 0.974962 0.0293172 0.5
61 2 0.0118055 0.0425921 0.5
62 1 0.0255109 0.0577487 0.5
63 2 0.0516289 0.0839996 0.5
64 2 0.0931012 0.092964 0.5
65 2 0.0997522 0.0779439 0.5
66 2 0.149591 0.0488433 0.5
67 2 0.177199 0.0788115 0.5
68 2 0.199292 0.0669764 0.5
69 2 0.281334 0.089405 0.5
70 1 0.294798 0.0607301 0.5
71 1 0.340299 0.0776894 0.5
72 1 0.370879 0.0581084 0.5
73 2 0.382077 0.0848542 0.5
74 2 0.421943 0.0971612 0.5
75 1 0.454881 0.0721894 0.5
76 2 0.468874 0.0986288 0.5
77 2 0.521904 0.0645182 0.5
78 2 0.555255 0.0485707 0.5
79 2 0.586847 0.042256 0.5
80 1 0.646017 0.05532 0.5
81 1 0.679194 0.0721092 0.5
82 2 0.726224 0.0422091 0.5
83 1 0.735976 0.0658312 0.5
84 1 0.763677 0.0600447 0.5
85 1 0.797276 0.0696205 0.5
86 2 0.830952 0.0513882 0.5
87 2 0.848289 0.0793371 0.5
88 1 0.896371 0.0776672 0.5
89 2 0.958131 0.0790558 0.5
90 2 0.997715 0.0969798 0.5
91 2 0.977085 0.0665745 0.5
92 2 0.0526555 0.0970635 0.5
93 1 0.0678708 0.0975333 0.5
94 2 0.129274 0.0903512 0.5
95 2 0.127815 0.123497 0.5
96 2 0.156931 0.070946 0.5
97 2 0.168123 0.11248 0.5
98 1 0.240869 0.104096 0.5
99 2 0.302043 0.0814427 0.5
100 2 0.276211 0.0955739 0.5
101 2 0.312732 0.0726801 0.5
102 1 0.371927 0.098282 0.5
103 2 0.371429 0.109633 0.5
104 2 0.43683 0.104016 0.5
105 1 0.458093 0.107338 0.5
106 1 0.497491 0.106981 0.5
107 1 0.535485 0.110119 0.5
108 2 0.538306 0.0738781 0.5
109 2 0.600605 0.104686 0.5
110 1 0.640601 0.0923013 0.5
111 2 0.687798 0.0963188 0.5
112 1 0.702931 0.0940772 0.5
113 2 0.770199 0.0778858 0.5
114 1 0.76076 0.105879 0.5
115 2 0.781391 0.0701695 0.5
116 1 0.842134 0.0901187 0.5
117 2 0.858362 0.0872011 0.5
118 2 0.912336 0.1053 0.5
119 2 0.915243 0.0854592 0.5
120 2 0.984125 0.0761108 0.5
121 2 0.987352 0.133569 0.5
122 2 0.0428606 0.100732 0.5
123 1 0.0594186 0.143808 0.5
124 2 0.0801717 0.161394 0.5
125 1 0.142174 0.123703 0.5
126 1 0.154121 0.136276 0.5
127 2 0.177772 0.120249 0.5
128 2 0.252814 0.12105 0.5
129 2 0.257624 0.115131 0.5
130 2 0.297105 0.137452 0.5
131 2 0.359688 0.150891 0.5
132 1 0.355321 0.132677 0.5
133 1 0.406847 0.123178 0.5
134 1 0.444911 0.137566 0.5
135 1 0.470605 0.141928 0.5
136 2 0.526463 0.134512 0.5
137 1 0.539865 0.133882 0.5
138 1 0.561036 0.128882 0.5
139 2 0.603711 0.15704 0.5
140 2 0.634926 0.14112 0.5
141 2 0.664757 0.171278 0.5
142 2 0.721156 0.164018 0.5
143 1 0.740962 0.139205 0.5
144 2 0.7889 0.167013 0.5
145 2 0.824544 0.135299 0.5
146 2 0.839362 0.128121 0.5
147 1 0.86476 0.135785 0.5
148 2 0.876309 0.12016 0.5
149 2 0.928439 0.114597 0.5
150 2 0.984247 0.124487 0.5
151 1 0.00344457 0.162365 0.5
152 2 0.0700736 0.156964 0.5
153 2 0.0964317 0.198213 0.5
154 2 0.114145 0.165225 0.5
155 2 0.13025 0.171631 0.5
156 1 0.157921 0.16812 0.5
157 2 0.219047 0.187105 0.5
158 2 0.260298 0.172362 0.5
159 2 0.277056 0.193658 0.5
160 1 0.288666 0.163691 0.5
161 2 0.357112 0.193517 0.5
162 2 0.382433 0.163122 0.5
163 2 0.435787 0.141372 0.5
164 1 0.436822 0.158248 0.5
165 2 0.451713 0.159523 0.5
166 2 0.535738 0.190729 0.5
167 1 0.542898 0.171516 0.5
168 2 0.566449 0.141328 0.5
169 2 0.600316 0.17193 0.5
170 2 0.66255 0.185513 0.5
171 2 0.6958 0.145279 0.5
172 2 0.700418 0.14477 0.5
173 2 0.716871 0.177157 0.5
174 1 0.765709 0.158726 0.5
175 2 0.77856 0.133783 0.5
176 1 0.842056 0.170596 0.5
177 2 0.881552 0.144735 0.5
178 1 0.891884 0.168983 0.5
179 2 0.900657 0.182288 0.5
180 2 0.00281195 0.129861 0.5
181 2 0.0337296 0.189368 0.5
182 2 0.0288044 0.223676 0.5
183 2 0.0731363 0.200339 0.5
184 2 0.0851698 0.178017 0.5
185 1 0.14544 0.211742 0.5
186 2 0.162423 0.23711 0.5
187 2 0.231073 0.229162 0.5
188 2 0.201584 0.197727 0.5
189 2 0.23719 0.1813 0.5
190 2 0.270879 0.214027 0.5
191 2 0.353842 0.227976 0.5
192 2 0.337068 0.207197 0.5
193 2 0.399209 0.213266 0.5
194 2 0.443429 0.173322 0.5
195 2 0.43015 0.200919 0.5
196 2 0.462959 0.196359 0.5
197 2 0.558884 0.218205 0.5
198 2 0.601592 0.18622 0.5
199 1 0.605381 0.197524 0.5
200 2 0.605585 0.222319 0.5
201 2 0.670177 0.174086 0.5
202 2 0.690644 0.221029 0.5
203 2 0.76006 0.214113 0.5
204 1 0.76294 0.189032 0.5
205 2 0.769513 0.199018 0.5
206 1 0.843499 0.206837 0.5
207 1 0.873065 0.199093 0.5
208 2 0.886216 0.178577 0.5
209 2 0.921567 0.220579 0.5
210 2 0.967312 0.187991 0.5
211 1 0.00851032 0.243049 0.5
212 2 0.0460125 0.25499 0.5
213 2 0.0990695 0.220256 0.5
214 1 0.112273 0.237158 0.5
215 2 0.147548 0.249795 0.5
216 2 0.163777 0.258074 0.5
217 2 0.165595 0.208154 0.5
218 2 0.197869 0.245563 0.5
219 2 0.254852 0.239666 0.5
220 2 0.267807 0.255213 0.5
221 2 0.304719 0.202155 0.5
222 2 0.394485 0.229753 0.5
223 2 0.412216 0.246888 0.5
224 1 0.428438 0.245643 0.5
225 2 0.458986 0.243714 0.5
226 1 0.508702 0.229207 0.5
227 2 0.528558 0.236909 0.5
228 2 0.60291 0.216443 0.5
229 2 0.586401 0.271862 0.5
230 2 0.648549 0.236134 0.5
231 2 0.666476 0.213846 0.5
232 2 0.731666 0.248195 0.5
233 2 0.709681 0.265254 0.5
234 1 0.768594 0.226541 0.5
235 2 0.766126 0.208732 0.5
236 1 0.820386 0.2404 0.5
237 2 0.864112 0.239218 0.5
238 1 0.902351 0.228138 0.5
239 2 0.930537 0.208556 0.5
240 2 0.948866 0.217355 0.5
241 2 0.0328502 0.247088 0.5
242 1 0.0276416 0.266685 0.5
243 2 0.0849128 0.25461 0.5
244 2 0.129394 0.261866 0.5
245 1 0.142341 0.26975 0.5
246 1 0.17418 0.260852 0.5
247 1 0.192546 0.265411 0.5
248 2 0.254203 0.261999 0.5
249 2 0.291522 0.28503 0.5
250 1 0.292758 0.27055 0.5
251 2 0.3213 0.229646 0.5
252 2 0.365794 0.292871 0.5
253 1 0.3944 0.279177 0.5
254 1 0.423967 0.267728 0.5
255 1 0.47523 0.258422 0.5
256 2 0.463611 0.297196 0.5
257 2 0.534282 0.239089 0.5
258 2 0.550841 0.301269 0.5
259 2 0.626286 0.27981 0.5
260 1 0.635882 0.275484 0.5
261 2 0.692017 0.302806 0.5
262 2 0.722361 0.232501 0.5
263 2 0.741668 0.299728 0.5
264 2 0.778388 0.279888 0.5
265 1 0.793017 0.257809 0.5
266 2 0.87113 0.298285 0.5