ITEM: TIMESTEP
0
ITEM: NUMBER OF ATOMS
900
ITEM: BOX BOUNDS pp pp pp
0.0000000000000000e+00 3.0000000000000000e+02
0.0000000000000000e+00 3.0000000000000000e+02
-5.0000000000000000e+00 5.0000000000000000e+00
ITEM: ATOMS id type xs ys zs
1 2 0 0 0.5
2 2 0.0333333 0 0.5
3 2 0.0666667 0 0.5
4 2 0.1 0 0.5
5 2 0.133333 0 0.5
6 2 0.166667 0 0.5
7 1 0.2 0 0.5
8 2 0.233333 0 0.5
9 2 0.266667 0 0.5
10 2 0.3 0 0.5
11 2 0.333333 0 0.5
12 2 0.366667 0 0.5
13 2 0.4 0 0.5
14 2 0.433333 0 0.5
15 2 0.466667 0 0.5
16 2 0.5 0 0.5
17 2 0.533333 0 0.5
18 2 0.566667 0 0.5
19 2 0.6 0 0.5
20 2 0.633333 0 0.5
21 2 0.666667 0 0.5
22 2 0.7 0 0.5
23 2 0.733333 0 0.5
24 2 0.766667 0 0.5
25 2 0.8 0 0.5
26 1 0.833333 0 0.5
27 1 0.866667 0 0.5
28 1 0.9 0 0.5
29 2 0.933333 0 0.5
30 2 0.966667 0 0.5
31 2 0 0.0333333 0.5
32 1 0.0333333 0.0333333 0.5
33 2 0.0666667 0.0333333 0.5
34 2 0.1 0.0333333 0.5
35 1 0.133333 0.0333333 0.5
36 2 0.166667 0.0333333 0.5
37 2 0.2 0.0333333 0.5
38 2 0.233333 0.0333333 0.5
39 2 0.266667 0.0333333 0.5
40 2 0.3 0.0333333 0.5
41 2 0.333333 0.0333333 0.5
42 2 0.366667 0.0333333 0.5
43 2 0.4 0.0333333 0.5
44 2 0.433333 0.0333333 0.5
45 2 0.466667 0.0333333 0.5
46 2 0.5 0.0333333 0.5
47 2 0.533333 0.0333333 0.5
48 2 0.566667 0.0333333 0.5
49 2 0.6 0.0333333 0.5
50 1 0.633333 0.0333333 0.5
51 2 0.666667 0.0333333 0.5
52 2 0.7 0.0333333 0.5
53 2 0.733333 0.0333333 0.5
54 2 0.766667 0.0333333 0.5
55 2 0.8 0.0333333 0.5
56 2 0.833333 0.0333333 0.5
57 2 0.866667 0.0333333 0.5
58 2 0.9 0.0333333 0.5
59 2 0.933333 0.0333333 0.5
60 2 0.966667 0.0333333 0.5
61 2 0 0.0666667 0.5
62 1 0.0333333 0.0666667 0.5
63 2 0.0666667 0.0666667 0.5
64 2 0.1 0.0666667 0.5
65 2 0.133333 0.0666667 0.5
66 2 0.166667 0.0666667 0.5
67 2 0.2 0.0666667 0.5
68 2 0.233333 0.0666667 0.5
69 2 0.266667 0.0666667 0.5
70 1 0.3 0.0666667 0.5
71 2 0.333333 0.0666667 0.5
72 2 0.366667 0.0666667 0.5
73 2 0.4 0.0666667 0.5
74 2 0.433333 0.0666667 0.5
75 2 0.466667 0.0666667 0.5
76 2 0.5 0.0666667 0.5
77 2 0.533333 0.0666667 0.5
78 2 0.566667 0.0666667 0.5
79 2 0.6 0.0666667 0.5
80 2 0.633333 0.0666667 0.5
81 1 0.666667 0.0666667 0.5
82 2 0.7 0.0666667 0.5
83 2 0.733333 0.0666667 0.5
84 2 0.766667 0.0666667 0.5
85 2 0.8 0.0666667 0.5
86 2 0.833333 0.0666667 0.5
87 2 0.866667 0.0666667 0.5
88 1 0.9 0.0666667 0.5
89 2 0.933333 0.0666667 0.5
90 2 0.966667 0.0666667 0.5
91 2 0 0.1 0.5
92 2 0.0333333 0.1 0.5
93 2 0.0666667 0.1 0.5
94 2 0.1 0.1 0.5
95 2 0.133333 0.1 0.5
96 2 0.166667 0.1 0.5
97 2 0.2 0.1 0.5
98 2 0.233333 0.1 0.5
99 2 0.266667 0.1 0.5
100 2 0.3 0.1 0.5
101 2 0.333333 0.1 0.5
102 1 0.366667 0.1 0.5
103 2 0.4 0.1 0.5
104 2 0.433333 0.1 0.5
105 2 0.466667 0.1 0.5
106 2 0.5 0.1 0.5
107 2 0.533333 0.1 0.5
108 2 0.566667 0.1 0.5
109 2 0.6 0.1 0.5
110 1 0.633333 0.1 0.5
111 2 0.666667 0.1 0.5
112 2 0.7 0.1 0.5
113 2 0.733333 0.1 0.5
114 2 0.766667 0.1 0.5
115 2 0.8 0.1 0.5
116 2 0.833333 0.1 0.5
117 2 0.866667 0.1 0.5
118 2 0.9 0.1 0.5
119 2 0.933333 0.1 0.5
120 2 0.966667 0.1 0.5
121 2 0 0.133333 0.5
122 2 0.0333333 0.133333 0.5
123 2 0.0666667 0.133333 0.5
124 2 0.1 0.133333 0.5
125 2 0.133333 0.133333 0.5
126 2 0.166667 0.133333 0.5
127 2 0.2 0.133333 0.5
128 2 0.233333 0.133333 0.5
129 2 0.266667 0.133333 0.5
130 2 0.3 0.133333 0.5
131 2 0.333333 0.133333 0.5
132 2 0.366667 0.133333 0.5
133 2 0.4 0.133333 0.5
134 2 0.433333 0.133333 0.5
135 1 0.466667 0.133333 0.5
136 2 0.5 0.133333 0.5
137 2 0.533333 0.133333 0.5
138 2 0.566667 0.133333 0.5
139 2 0.6 0.133333 0.5
140 2 0.633333 0.133333 0.5
141 2 0.666667 0.133333 0.5
142 2 0.7 0.133333 0.5
143 1 0.733333 0.133333 0.5
144 2 0.766667 0.133333 0.5
145 2 0.8 0.133333 0.5
146 2 0.833333 0.133333 0.5
147 2 0.866667 0.133333 0.5
148 2 0.9 0.133333 0.5
149 2 0.933333 0.133333 0.5
150 2 0.966667 0.133333 0.5
151 2 0 0.166667 0.5
152 2 0.0333333 0.166667 0.5
153 2 0.0666667 0.166667 0.5
154 2 0.1 0.166667 0.5
155 2 0.133333 0.166667 0.5
156 2 0.166667 0.166667 0.5
157 2 0.2 0.166667 0.5
158 2 0.233333 0.166667 0.5
159 2 0.266667 0.166667 0.5
160 2 0.3 0.166667 0.5
161 2 0.333333 0.166667 0.5
162 2 0.366667 0.166667 0.5
163 2 0.4 0.166667 0.5
164 2 0.433333 0.166667 0.5
165 2 0.466667 0.166667 0.5
166 2 0.5 0.166667 0.5
167 2 0.533333 0.166667 0.5
168 2 0.566667 0.166667 0.5
169 2 0.6 0.166667 0.5
170 2 0.633333 0.166667 0.5
171 2 0.666667 0.166667 0.5
172 2 0.7 0.166667 0.5
173 2 0.733333 0.166667 0.5
174 2 0.766667 0.166667 0.5
175 2 0.8 0.166667 0.5
176 1 0.833333 0.166667 0.5
177 2 0.866667 0.166667 0.5
178 1 0.9 0.166667 0.5
179 2 0.933333 0.166667 0.5
180 2 0.966667 0.166667 0.5
181 2 0 0.2 0.5
182 2 0.0333333 0.2 0.5
183 2 0.0666667 0.2 0.5
184 2 0.1 0.2 0.5
185 2 0.133333 0.2 0.5
186 2 0.166667 0.2 0.5
187 2 0.2 0.2 0.5
188 2 0.233333 0.2 0.5
189 2 0.266667 0.2 0.5
190 2 0.3 0.2 0.5
191 2 0.333333 0.2 0.5
192 2 0.366667 0.2 0.5
193 2 0.4 0.2 0.5
194 2 0.433333 0.2 0.5
195 2 0.466667 0.2 0.5
196 2 0.5 0.2 0.5
197 2 0.533333 0.2 0.5
198 2 0.566667 0.2 0.5
199 2 0.6 0.2 0.5
200 2 0.633333 0.2 0.5
201 2 0.666667 0.2 0.5
202 2 0.7 0.2 0.5
203 2 0.733333 0.2 0.5
204 2 0.766667 0.2 0.5
205 2 0.8 0.2 0.5
206 1 0.833333 0.2 0.5
207 2 0.866667 0.2 0.5
208 2 0.9 0.2 0.5
209 2 0.933333 0.2 0.5
210 2 0.966667 0.2 0.5
211 2 0 0.233333 0.5
212 2 0.0333333 0.233333 0.5
213 2 0.0666667 0.233333 0.5
214 2 0.1 0.233333 0.5
215 2 0.133333 0.233333 0.5
216 2 0.166667 0.233333 0.5
217 2 0.2 0.233333 0.5
218 2 0.233333 0.233333 0.5
219 2 0.266667 0.233333 0.5
220 2 0.3 0.233333 0.5
221 2 0.333333 0.233333 0.5
222 2 0.366667 0.233333 0.5
223 2 0.4 0.233333 0.5
224 1 0.433333 0.233333 0.5
225 2 0.466667 0.233333 0.5
226 2 0.5 0.233333 0.5
227 2 0.533333 0.233333 0.5
228 2 0.566667 0.233333 0.5
229 2 0.6 0.233333 0.5
230 2 0.633333 0.233333 0.5
231 2 0.666667 0.233333 0.5
232 2 0.7 0.233333 0.5
233 2 0.733333 0.233333 0.5
234 2 0.766667 0.233333 0.5
235 2 0.8 0.233333 0.5
236 1 0.833333 0.233333 0.5
237 2 0.866667 0.233333 0.5
238 2 0.9 0.233333 0.5
239 2 0.933333 0.233333 0.5
240 2 0.966667 0.233333 0.5
241 2 0 0.266667 0.5
242 2 0.0333333 0.266667 0.5
243 2 0.0666667 0.266667 0.5
244 2 0.1 0.266667 0.5
245 2 0.133333 0.266667 0.5
246 2 0.166667 0.266667 0.5
247 2 0.2 0.266667 0.5
248 2 0.233333 0.266667 0.5
249 2 0.266667 0.266667 0.5
250 2 0.3 0.266667 0.5
251 2 0.333333 0.266667 0.5
252 2 0.366667 0.266667 0.5
253 2 0.4 0.266667 0.5
254 2 0.433333 0.266667 0.5
255 1 0.466667 0.266667 0.5
256 2 0.5 0.266667 0.5
257 2 0.533333 0.266667 0.5
258 2 0.566667 0.266667 0.5
259 2 0.6 0.266667 0.5
260 2 0.633333 0.266667 0.5
261 2 0.666667 0.266667 0.5
262 2 0.7 0.266667 0.5
263 2 0.733333 0.266667 0.5
264 2 0.766667 0.266667 0.5
265 2 0.8 0.266667 0.5
266 2 0.833333 0.266667 0.5
267 2 0.866667 0.266667 0.5
268 2 0.9 0.266667 0.5
269 2 0.933333 0.266667 0.5
270 2 0.966667 0.266667 0.5
271 2 0 0.3 0.5
272 2 0.0333333 0.3 0.5
273 2 0.0666667 0.3 0.5
274 2 0.1 0.3 0.5
275 2 0.133333 0.3 0.5
276 2 0.166667 0.3 0.5
277 1 0.2 0.3 0.5
278 2 0.233333 0.3 0.5
279 2 0.266667 0.3 0.5
280 2 0.3 0.3 0.5
281 2 0.333333 0.3 0.5
282 2 0.366667 0.3 0.5
283 2 0.4 0.3 0.5
284 2 0.433333 0.3 0.5
285 2 0.466667 0.3 0.5
286 2 0.5 0.3 0.5
287 2 0.533333 0.3 0.5
288 1 0.566667 0.3 0.5
289 2 0.6 0.3 0.5
290 2 0.633333 0.3 0.5
291 1 0.666667 0.3 0.5
292 1 0.7 0.3 0.5
293 2 0.733333 0.3 0.5
294 2 0.766667 0.3 0.5
295 2 0.8 0.3 0.5
296 2 0.833333 0.3 0.5
297 2 0.866667 0.3 0.5
298 2 0.9 0.3 0.5
299 2 0.933333 0.3 0.5
300 2 0.966667 0.3 0.5
301 2 0 0.333333 0.5
302 2 0.0333333 0.333333 0.5
303 2 0.0666667 0.333333 0.5
304 2 0.1 0.333333 0.5
305 2 0.133333 0.333333 0.5
306 2 0.166667 0.333333 0.5
307 2 0.2 0.333333 0.5
308 2 0.233333 0.333333 0.5
309 2 0.266667 0.333333 0.5
310 2 0.3 0.333333 0.5
311 2 0.333333 0.333333 0.5
312 2 0.366667 0.333333 0.5
313 2 0.4 0.333333 0.5
314 2 0.433333 0.333333 0.5
315 2 0.466667 0.333333 0.5
316 2 0.5 0.333333 0.5
317 2 0.533333 0.333333 0.5
318 2 0.566667 0.333333 0.5
319 2 0.6 0.333333 0.5
320 2 0.633333 0.333333 0.5
321 2 0.666667 0.333333 0.5
322 2 0.7 0.333333 0.5
323 2 0.733333 0.333333 0.5
324 2 0.766667 0.333333 0.5
325 1 0.8 0.333333 0.5
326 2 0.833333 0.333333 0.5
327 2 0.866667 0.333333 0.5
328 2 0.9 0.333333 0.5
329 2 0.933333 0.333333 0.5
330 2 0.966667 0.333333 0.5
331 1 0 0.366667 0.5
332 2 0.0333333 0.366667 0.5
333 2 0.0666667 0.366667 0.5
334 2 0.1 0.366667 0.5
335 2 0.133333 0.366667 0.5
336 2 0.166667 0.366667 0.5
337 2 0.2 0.366667 0.5
338 2 0.233333 0.366667 0.5
339 2 0.266667 0.366667 0.5
340 2 0.3 0.366667 0.5
341 1 0.333333 0.366667 0.5
342 1 0.366667 0.366667 0.5
343 2 0.4 0.366667 0.5
344 2 0.433333 0.366667 0.5
345 2 0.466667 0.366667 0.5
346 2 0.5 0.366667 0.5
347 1 0.533333 0.366667 0.5
348 2 0.566667 0.366667 0.5
349 2 0.6 0.366667 0.5
350 2 0.633333 0.366667 0.5
351 2 0.666667 0.366667 0.5
352 2 0.7 0.366667 0.5
353 2 0.733333 0.366667 0.5
354 2 0.766667 0.366667 0.5
355 2 0.8 0.366667 0.5
356 1 0.833333 0.366667 0.5
357 2 0.866667 0.366667 0.5
358 2 0.9 0.366667 0.5
359 2 0.933333 0.366667 0.5
360 2 0.966667 0.366667 0.5
361 2 0 0.4 0.5
362 2 0.0333333 0.4 0.5
363 2 0.0666667 0.4 0.5
364 2 0.1 0.4 0.5
365 2 0.133333 0.4 0.5
366 2 0.166667 0.4 0.5
367 2 0.2 0.4 0.5
368 2 0.233333 0.4 0.5
369 2 0.266667 0.4 0.5
370 2 0.3 0.4 0.5
371 2 0.333333 0.4 0.5
372 2 0.366667 0.4 0.5
373 2 0.4 0.4 0.5
374 2 0.433333 0.4 0.5
375 2 0.466667 0.4 0.5
376 2 0.5 0.4 0.5
377 2 0.533333 0.4 0.5
378 2 0.566667 0.4 0.5
379 2 0.6 0.4 0.5
380 2 0.633333 0.4 0.5
381 2 0.666667 0.4 0.5
382 2 0.7 0.4 0.5
383 2 0.733333 0.4 0.5
384 2 0.766667 0.4 0.5
385 2 0.8 0.4 0.5
386 2 0.833333 0.4 0.5
387 2 0.866667 0.4 0.5
388 2 0.9 0.4 0.5
389 2 0.933333 0.4 0.5
390 2 0.966667 0.4 0.5
391 2 0 0.433333 0.5
392 2 0.0333333 0.433333 0.5
393 2 0.0666667 0.433333 0.5
394 2 0.1 0.433333 0.5
395 2 0.133333 0.433333 0.5
396 2 0.166667 0.433333 0.5
397 2 0.2 0.433333 0.5
398 2 0.233333 0.433333 0.5
399 2 0.266667 0.433333 0.5
400 2 0.3 0.433333 0.5
401 2 0.333333 0.433333 0.5
402 2 0.366667 0.433333 0.5
403 2 0.4 0.433333 0.5
404 2 0.433333 0.433333 0.5
405 1 0.466667 0.433333 0.5
406 2 0.5 0.433333 0.5
407 2 0.533333 0.433333 0.5
408 2 0.566667 0.433333 0.5
409 2 0.6 0.433333 0.5
410 2 0.633333 0.433333 0.5
411 2 0.666667 0.433333 0.5
412 1 0.7 0.433333 0.5
413 2 0.733333 0.433333 0.5
414 1 0.766667 0.433333 0.5
415 2 0.8 0.433333 0.5
416 1 0.833333 0.433333 0.5
417 2 0.866667 0.433333 0.5
418 2 0.9 0.433333 0.5
419 2 0.933333 0.433333 0.5
420 2 0.966667 0.433333 0.5
421 2 0 0.466667 0.5
422 2 0.0333333 0.466667 0.5
423 2 0.0666667 0.466667 0.5
424 2 0.1 0.466667 0.5
425 2 0.133333 0.466667 0.5
426 1 0.166667 0.466667 0.5
427 2 0.2 0.466667 0.5
428 2 0.233333 0.466667 0.5
429 2 0.266667 0.466667 0.5
430 2 0.3 0.466667 0.5
431 2 0.333333 0.466667 0.5
432 2 0.366667 0.466667 0.5
433 2 0.4 0.466667 0.5
434 2 0.433333 0.466667 0.5
435 2 0.466667 0.466667 0.5
436 2 0.5 0.466667 0.5
437 2 0.533333 0.466667 0.5
438 2 0.566667 0.466667 0.5
439 2 0.6 0.466667 0.5
440 2 0.633333 0.466667 0.5
441 2 0.666667 0.466667 0.5
442 2 0.7 0.466667 0.5
443 2 0.733333 0.466667 0.5
444 2 0.766667 0.466667 0.5
445 2 0.8 0.466667 0.5
446 2 0.833333 0.466667 0.5
447 2 0.866667 0.466667 0.5
448 2 0.9 0.466667 0.5
449 2 0.933333 0.466667 0.5
450 2 0.966667 0.466667 0.5
451 2 0 0.5 0.5
452 2 0.0333333 0.5 0.5
453 2 0.0666667 0.5 0.5
454 2 0.1 0.5 0.5
455 2 0.133333 0.5 0.5
456 2 0.166667 0.5 0.5
457 2 0.2 0.5 0.5
458 2 0.233333 0.5 0.5
459 2 0.266667 0.5 0.5
460 2 0.3 0.5 0.5
461 2 0.333333 0.5 0.5
462 2 0.366667 0.5 0.5
463 2 0.4 0.5 0.5
464 2 0.433333 0.5 0.5
465 2 0.466667 0.5 0.5
466 2 0.5 0.5 0.5
467 2 0.533333 0.5 0.5
468 2 0.566667 0.5 0.5
469 1 0.6 0.5 0.5
470 2 0.633333 0.5 0.5
471 2 0.666667 0.5 0.5
472 2 0.7 0.5 0.5
473 2 0.733333 0.5 0.5
474 2 0.766667 0.5 0.5
475 2 0.8 0.5 0.5
476 2 0.833333 0.5 0.5
477 2 0.866667 0.5 0.5
478 2 0.9 0.5 0.5
479 2 0.933333 0.5 0.5
480 2 0.966667 0.5 0.5
481 2 0 0.533333 0.5
482 2 0.0333333 0.533333 0.5
483 2 0.0666667 0.533333 0.5
484 2 0.1 0.533333 0.5
485 2 0.133333 0.533333 0.5
486 2 0.166667 0.533333 0.5
487 2 0.2 0.533333 0.5
488 2 0.233333 0.533333 0.5
489 2 0.266667 0.533333 0.5
490 2 0.3 0.533333 0.5
491 2 0.333333 0.533333 0.5
492 2 0.366667 0.533333 0.5
493 2 0.4 0.533333 0.5
494 2 0.433333 0.533333 0.5
495 1 0.466667 0.533333 0.5
496 2 0.5 0.533333 0.5
497 2 0.533333 0.533333 0.5
498 2 0.566667 0.533333 0.5
499 2 0.6 0.533333 0.5
500 1 0.633333 0.533333 0.5
501 2 0.666667 0.533333 0.5
502 2 0.7 0.533333 0.5
503 2 0.733333 0.533333 0.5
504 1 0.766667 0.533333 0.5
505 2 0.8 0.533333 0.5
506 2 0.833333 0.533333 0.5
507 2 0.866667 0.533333 0.5
508 2 0.9 0.533333 0.5
509 2 0.933333 0.533333 0.5
510 2 0.966667 0.533333 0.5
511 2 0 0.566667 0.5
512 1 0.0333333 0.566667 0.5
513 2 0.0666667 0.566667 0.5
514 2 0.1 0.566667 0.5
515 2 0.133333 0.566667 0.5
516 2 0.166667 0.566667 0.5
517 1 0.2 0.566667 0.5
518 2 0.233333 0.566667 0.5
519 2 0.266667 0.566667 0.5
520 2 0.3 0.566667 0.5
521 2 0.333333 0.566667 0.5
522 2 0.366667 0.566667 0.5
523 2 0.4 0.566667 0.5
524 2 0.433333 0.566667 0.5
525 2 0.466667 0.566667 0.5
526 2 0.5 0.566667 0.5
527 2 0.533333 0.566667 0.5
528 2 0.566667 0.566667 0.5
529 2 0.6 0.566667 0.5
530 2 0.633333 0.566667 0.5
531 2 0.666667 0.566667 0.5
532 1 0.7 0.566667 0.5
533 2 0.733333 0.566667 0.5
534 2 0.766667 0.566667 0.5
535 2 0.8 0.566667 0.5
536 2 0.833333 0.566667 0.5
537 2 0.866667 0.566667 0.5
538 2 0.9 0.566667 0.5
539 2 0.933333 0.566667 0.5
540 2 0.966667 0.566667 0.5
541 2 0 0.6 0.5
542 2 0.0333333 0.6 0.5
543 2 0.0666667 0.6 0.5
544 2 0.1 0.6 0.5
545 1 0.133333 0.6 0.5
546 2 0.166667 0.6 0.5
547 2 0.2 0.6 0.5
548 2 0.233333 0.6 0.5
549 2 0.266667 0.6 0.5
550 1 0.3 0.6 0.5
551 2 0.333333 0.6 0.5
552 2 0.366667 0.6 0.5
553 2 0.4 0.6 0.5
554 2 0.433333 0.6 0.5
555 2 0.466667 0.6 0.5
556 2 0.5 0.6 0.5
557 2 0.533333 0.6 0.5
558 2 0.566667 0.6 0.5
559 2 0.6 0.6 0.5
560 2 0.633333 0.6 0.5
561 2 0.666667 0.6 0.5
562 2 0.7 0.6 0.5
563 2 0.733333 0.6 0.5
564 2 0.766667 0.6 0.5
565 2 0.8 0.6 0.5
566 2 0.833333 0.6 0.5
567 2 0.866667 0.6 0.5
568 2 0.9 0.6 0.5
569 2 0.933333 0.6 0.5
570 2 0.966667 0.6 0.5
571 2 0 0.633333 0.5
572 2 0.0333333 0.633333 0.5
573 2 0.0666667 0.633333 0.5
574 2 0.1 0.633333 0.5
575 2 0.133333 0.633333 0.5
576 2 0.166667 0.633333 0.5
577 2 0.2 0.633333 0.5
578 2 0.233333 0.633333 0.5
579 2 0.266667 0.633333 0.5
580 2 0.3 0.633333 0.5
581 1 0.333333 0.633333 0.5
582 2 0.366667 0.633333 0.5
583 2 0.4 0.633333 0.5
584 2 0.433333 0.633333 0.5
585 2 0.466667 0.633333 0.5
586 1 0.5 0.633333 0.5
587 2 0.533333 0.633333 0.5
588 2 0.566667 0.633333 0.5
589 2 0.6 0.633333 0.5
590 2 0.633333 0.633333 0.5
591 2 0.666667 0.633333 0.5
592 1 0.7 0.633333 0.5
593 2 0.733333 0.633333 0.5
594 2 0.766667 0.633333 0.5
595 2 0.8 0.633333 0.5
596 2 0.833333 0.633333 0.5
597 2 0.866667 0.633333 0.5
598 2 0.9 0.633333 0.5
599 2 0.933333 0.633333 0.5
600 2 0.966667 0.633333 0.5
601 1 0 0.666667 0.5
602 2 0.0333333 0.666667 0.5
603 2 0.0666667 0.666667 0.5
604 2 0.1 0.666667 0.5
605 2 0.133333 0.666667 0.5
606 2 0.166667 0.666667 0.5
607 2 0.2 0.666667 0.5
608 2 0.233333 0.666667 0.5
609 1 0.266667 0.666667 0.5
610 2 0.3 0.666667 0.5
611 2 0.333333 0.666667 0.5
612 2 0.366667 0.666667 0.5
613 2 0.4 0.666667 0.5
614 2 0.433333 0.666667 0.5
615 2 0.466667 0.666667 0.5
616 2 0.5 0.666667 0.5
617 1 0.533333 0.666667 0.5
618 1 0.566667 0.666667 0.5
619 2 0.6 0.666667 0.5
620 2 0.633333 0.666667 0.5
621 2 0.666667 0.666667 0.5
622 2 0.7 0.666667 0.5
623 2 0.733333 0.666667 0.5
624 2 0.766667 0.666667 0.5
625 2 0.8 0.666667 0.5
626 2 0.833333 0.666667 0.5
627 2 0.866667 0.666667 0.5
628 2 0.9 0.666667 0.5
629 2 0.933333 0.666667 0.5
630 2 0.966667 0.666667 0.5
631 2 0 0.7 0.5
632 2 0.0333333 0.7 0.5
633 2 0.0666667 0.7 0.5
634 2 0.1 0.7 0.5
635 2 0.133333 0.7 0.5
636 2 0.166667 0.7 0.5
637 2 0.2 0.7 0.5
638 2 0.233333 0.7 0.5
639 2 0.266667 0.7 0.5
640 2 0.3 0.7 0.5
641 2 0.333333 0.7 0.5
642 2 0.366667 0.7 0.5
643 2 0.4 0.7 0.5
644 2 0.433333 0.7 0.5
645 2 0.466667 0.7 0.5
646 2 0.5 0.7 0.5
647 2 0.533333 0.7 0.5
648 2 0.566667 0.7 0.5
649 2 0.6 0.7 0.5
650 1 0.633333 0.7 0.5
651 2 0.666667 0.7 0.5
652 2 0.7 0.7 0.5
653 2 0.733333 0.7 0.5
654 2 0.766667 0.7 0.5
655 2 0.8 0.7 0.5
656 1 0.833333 0.7 0.5
657 2 0.866667 0.7 0.5
658 2 0.9 0.7 0.5
659 2 0.933333 0.7 0.5
660 2 0.966667 0.7 0.5
661 2 0 0.733333 0.5
662 2 0.0333333 0.733333 0.5
663 2 0.0666667 0.733333 0.5
664 2 0.1 0.733333 0.5
665 2 0.133333 0.733333 0.5
666 2 0.166667 0.733333 0.5
667 2 0.2 0.733333 0.5
668 1 0.233333 0.733333 0.5
669 1 0.266667 0.733333 0.5
670 2 0.3 0.733333 0.5
671 2 0.333333 0.733333 0.5
672 2 0.366667 0.733333 0.5
673 2 0.4 0.733333 0.5
674 2 0.433333 0.733333 0.5
675 2 0.466667 0.733333 0.5
676 2 0.5 0.733333 0.5
677 2 0.533333 0.733333 0.5
678 2 0.566667 0.733333 0.5
679 2 0.6 0.733333 0.5
680 2 0.633333 0.733333 0.5
681 2 0.666667 0.733333 0.5
682 2 0.7 0.733333 0.5
683 1 0.733333 0.733333 0.5
684 2 0.766667 0.733333 0.5
685 2 0.8 0.733333 0.5
686 2 0.833333 0.733333 0.5
687 1 0.866667 0.733333 0.5
688 2 0.9 0.733333 0.5
689 2 0.933333 0.733333 0.5
690 2 0.966667 0.733333 0.5
691 1 0 0.766667 0.5
692 2 0.0333333 0.766667 0.5
693 2 0.0666667 0.766667 0.5
694 2 0.1 0.766667 0.5
695 2 0.133333 0.766667 0.5
696 1 0.166667 0.766667 0.5
697 2 0.2 0.766667 0.5
698 2 0.233333 0.766667 0.5
699 2 0.266667 0.766667 0.5
700 2 0.3 0.766667 0.5
701 2 0.333333 0.766667 0.5
702 2 0.366667 0.766667 0.5
703 2 0.4 0.766667 0.5
704 2 0.433333 0.766667 0.5
705 2 0.466667 0.766667 0.5
706 2 0.5 0.766667 0.5
707 1 0.533333 0.766667 0.5
708 2 0.566667 0.766667 0.5
709 2 0.6 0.766667 0.5
710 2 0.633333 0.766667 0.5
711 1 0.666667 0.766667 0.5
712 2 0.7 0.766667 0.5
713 2 0.733333 0.766667 0.5
714 2 0.766667 0.766667 0.5
715 2 0.8 0.766667 0.5
716 2 0.833333 0.766667 0.5
717 2 0.866667 0.766667 0.5
718 2 0.9 0.766667 0.5
719 2 0.933333 0.766667 0.5
720 2 0.966667 0.766667 0.5
721 2 0 0.8 0.5
722 2 0.0333333 0.8 0.5
723 2 0.0666667 0.8 0.5
724 2 0.1 0.8 0.5
725 1 0.133333 0.8 0.5
726 2 0.166667 0.8 0.5
727 1 0.2 0.8 0.5
728 2 0.233333 0.8 0.5
729 2 0.266667 0.8 0.5
730 2 0.3 0.8 0.5
731 1 0.333333 0.8 0.5
732 2 0.366667 0.8 0.5
733 2 0.4 0.8 0.5
734 2 0.433333 0.8 0.5
735 2 0.466667 0.8 0.5
736 2 0.5 0.8 0.5
737 2 0.533333 0.8 0.5
738 2 0.566667 0.8 0.5
739 2 0.6 0.8 0.5
740 2 0.633333 0.8 0.5
741 2 0.666667 0.8 0.5
742 2 0.7 0.8 0.5
743 2 0.733333 0.8 0.5
744 2 0.766667 0.8 0.5
745 2 0.8 0.8 0.5
746 2 0.833333 0.8 0.5
747 2 0.866667 0.8 0.5
748 2 0.9 0.8 0.5
749 2 0.933333 0.8 0.5
750 2 0.966667 0.8 0.5
751 2 0 0.833333 0.5
752 2 0.0333333 0.833333 0.5
753 2 0.0666667 0.833333 0.5
754 2 0.1 0.833333 0.5
755 2 0.133333 0.833333 0.5
756 2 0.166667 0.833333 0.5
757 2 0.2 0.833333 0.5
758 2 0.233333 0.833333 0.5
759 2 0.266667 0.833333 0.5
760 2 0.3 0.833333 0.5
761 2 0.333333 0.833333 0.5
762 2 0.366667 0.833333 0.5
763 2 0.4 0.833333 0.5
764 2 0.433333 0.833333 0.5
765 2 0.466667 0.833333 0.5
766 2 0.5 0.833333 0.5
767 2 0.533333 0.833333 0.5
768 2 0.566667 0.833333 0.5
769 2 0.6 0.833333 0.5
770 2 0.633333 0.833333 0.5
771 2 0.666667 0.833333 0.5
772 1 0.7 0.833333 0.5
773 1 0.733333 0.833333 0.5
774 2 0.766667 0.833333 0.5
775 2 0.8 0.833333 0.5
776 2 0.833333 0.833333 0.5
777 2 0.866667 0.833333 0.5
778 2 0.9 0.833333 0.5
779 2 0.933333 0.833333 0.5
780 2 0.966667 0.833333 0.5
781 2 0 0.866667 0.5
782 2 0.0333333 0.866667 0.5
783 2 0.0666667 0.866667 0.5
784 2 0.1 0.866667 0.5
785 2 0.133333 0.866667 0.5
786 2 0.166667 0.866667 0.5
787 2 0.2 0.866667 0.5
788 2 0.233333 0.866667 0.5
789 2 0.266667 0.866667 0.5
790 2 0.3 0.866667 0.5
791 2 0.333333 0.866667 0.5
792 2 0.366667 0.866667 0.5
793 2 0.4 0.866667 0.5
794 2 0.433333 0.866667 0.5
795 2 0.466667 0.866667 0.5
796 2 0.5 0.866667 0.5
797 2 0.533333 0.866667 0.5
798 2 0.566667 0.866667 0.5
799 2 0.6 0.866667 0.5
800 2 0.633333 0.866667 0.5
801 2 0.666667 0.866667 0.5
802 2 0.7 0.866667 0.5
803 2 0.733333 0.866667 0.5
804 1 0.766667 0.866667 0.5
805 2 0.8 0.866667 0.5
806 2 0.833333 0.866667 0.5
807 2 0.866667 0.866667 0.5
808 2 0.9 0.866667 0.5
809 2 0.933333 0.866667 0.5
810 2 0.966667 0.866667 0.5
811 2 0 0.9 0.5
812 2 0.0333333 0.9 0.5
813 2 0.0666667 0.9 0.5
814 2 0.1 0.9 0.5
815 2 0.133333 0.9 0.5
816 2 0.166667 0.9 0.5
817 2 0.2 0.9 0.5
818 2 0.233333 0.9 0.5
819 2 0.266667 0.9 0.5
820 1 0.3 0.9 0.5
821 2 0.333333 0.9 0.5
822 2 0.366667 0.9 0.5
823 2 0.4 0.9 0.5
824 2 0.433333 0.9 0.5
825 2 0.466667 0.9 0.5
826 2 0.5 0.9 0.5
827 2 0.533333 0.9 0.5
828 2 0.566667 0.9 0.5
829 2 0.6 0.9 0.5
830 2 0.633333 0.9 0.5
831 2 0.666667 0.9 0.5
832 2 0.7 0.9 0.5
833 2 0.733333 0.9 0.5
834 2 0.766667 0.9 0.5
835 2 0.8 0.9 0.5
836 2 0.833333 0.9 0.5
837 2 0.866667 0.9 0.5
838 2 0.9 0.9 0.5
839 2 0.933333 0.9 0.5
840 2 0.966667 0.9 0.5
841 2 0 0.933333 0.5
842 2 0.0333333 0.933333 0.5
843 2 0.0666667 0.933333 0.5
844 1 0.1 0.933333 0.5
845 2 0.133333 0.933333 0.5
846 2 0.166667 0.933333 0.5
847 2 0.2 0.933333 0.5
848 2 0.233333 0.933333 0.5
849 2 0.266667 0.933333 0.5
850 2 0.3 0.933333 0.5
851 2 0.333333 0.933333 0.5
852 2 0.366667 0.933333 0.5
853 2 0.4 0.933333 0.5
854 2 0.433333 0.933333 0.5
855 2 0.466667 0.933333 0.5
856 2 0.5 0.933333 0.5
857 2 0.533333 0.933333 0.5
858 2 0.566667 0.933333 0.5
859 1 0.6 0.933333 0.5
860 2 0.633333 0.933333 0.5
861 2 0.666667 0.933333 0.5
862 2 0.7 0.933333 0.5
863 2 0.733333 0.933333 0.5
864 2 0.766667 0.933333 0.5
865 2 0.8 0.933333 0.5
866 2 0.833333 0.933333 0.5
867 2 0.866667 0.933333 0.5
868 2 0.9 0.933333 0.5
869 2 0.933333 0.933333 0.5
870 2 0.966667 0.933333 0.5
871 2 0 0.966667 0.5
872 2 0.0333333 0.966667 0.5
873 2 0.0666667 0.966667 0.5
874 2 0.1 0.966667 0.5
875 2 0.133333 0.966667 0.5
876 2 0.166667 0.966667 0.5
877 2 0.2 0.966667 0.5
878 1 0.233333 0.966667 0.5
879 2 0.266667 0.966667 0.5
880 2 0.3 0.966667 0.5
881 2 0.333333 0.966667 0.5
882 2 0.366667 0.966667 0.5
883 2 0.4 0.966667 0.5
884 2 0.433333 0.966667 0.5
885 2 0.466667 0.966667 0.5
886 2 0.5 0.966667 0.5
887 1 0.533333 0.966667 0.5
888 2 0.566667 0.966667 0.5
889 2 0.6 0.966667 0.5
890 2 0.633333 0.966667 0.5
891 2 0.666667 0.966667 0.5
892 2 0.7 0.966667 0.5
893 2 0.733333 0.966667 0.5
894 2 0.766667 0.966667 0.5
895 2 0.8 0.966667 0.5
896 2 0.833333 0.966667 0.5
897 2 0.866667 0.966667 0.5
898 2 0.9 0.966667 0.5
899 1 0.933333 0.966667 0.5
900 2 0.966667 0.966667 0.5
ITEM: TIMESTEP
1000
ITEM: NUMBER OF ATOMS
900
ITEM: BOX BOUNDS pp pp pp
-7.2958189652911756e+00 3.0729581896529032e+02
-7.2958189652911756e+00 3.0729581896529032e+02
-5.0000000000000000e+00 5.0000000000000000e+00
ITEM: ATOMS id type xs ys zs
1 2 0.997351 0.987451 0.5
2 2 0.04137 0.982355 0.5
3 2 0.102729 0.0176296 0.5
4 2 0.13617 0.967577 0.5
5 2 0.111567 0.0173743 0.5
6 2 0.157112 0.96637 0.5
7 1 0.198913 0.99429 0.5
8 2 0.206621 0.982336 0.5
9 2 0.285377 0.0107565 0.5
10 2 0.297971 0.987494 0.5
11 2 0.348543 0.011896 0.5
12 2 0.359873 0.975271 0.5
13 2 0.38412 0.980394 0.5
14 2 0.464341 0.991063 0.5
15 2 0.433314 0.0355132 0.5
16 2 0.479711 0.00747552 0.5
17 2 0.527631 0.0181015 0.5
18 2 0.592329 0.0252587 0.5
19 2 0.614527 0.970726 0.5
20 2 0.641413 0.00313736 0.5
21 2 0.673131 0.0309199 0.5
22 2 0.681075 0.00103012 0.5
23 2 0.761835 0.971947 0.5
24 2 0.754715 0.964671 0.5
25 2 0.820227 0.963878 0.5
26 1 0.844858 0.998821 0.5
27 1 0.87853 0.000753198 0.5
28 1 0.899808 0.987258 0.5
29 2 0.920635 0.0310229 0.5
30 2 0.934325 0.0316056 0.5
31 2 0.0364403 0.0459864 0.5
32 1 0.0361684 0.0328352 0.5
33 2 0.0364075 0.0554774 0.5
34 2 0.095612 0.0224524 0.5
35 1 0.12934 0.026108 0.5
36 2 0.175453 0.0293208 0.5
37 2 0.171968 0.00340787 0.5
38 2 0.208729 0.994782 0.5
39 2 0.228867 0.0660712 0.5
40 2 0.281948 0.0313136 0.5
41 2 0.319193 0.071031 0.5
42 2 0.36189 0.00710239 0.5
43 2 0.36602 0.0268594 0.5
44 2 0.413987 0.0512893 0.5
45 2 0.480075 0.0353372 0.5
46 2 0.513029 0.064537 0.5
47 2 0.56017 0.0421162 0.5
48 2 0.559319 0.0363561 0.5
49 2 0.623532 0.0407382 0.5
50 1 0.632648 0.0447769 0.5
51 2 0.646639 0.0406499 0.5
52 2 0.66962 0.996718 0.5
53 2 0.725011 0.0171803 0.5
54 2 0.796117 0.028534 0.5
55 2 0.768668 0.0485254 0.5
56 2 0.806944 0.0485003 0.5
57 2 0.839838 0.0657045 0.5
58 2 0.900354 0.999347 0.5
59 2 0.939178 0.0149347 0.5
60 2 0.992 0.0212911 0.5
61 2 0.0120687 0.0426105 0.5
62 1 0.0254715 0.0578746 0.5
63 2 0.0519007 0.0840321 0.5
64 2 0.0933752 0.0929991 0.5
65 2 0.100021 0.077976 0.5
66 2 0.149863 0.0488696 0.5
67 2 0.17747 0.0788438 0.5
68 2 0.199561 0.0670063 0.5
69 2 0.281608 0.0894381 0.5
70 1 0.295072 0.0607587 0.5
71 2 0.354679 0.0997556 0.5
72 2 0.379756 0.0409903 0.5
73 2 0.382349 0.0848877 0.5
74 2 0.422216 0.0971973 0.5
75 2 0.431747 0.0832412 0.5
76 2 0.462975 0.103755 0.5
77 2 0.522177 0.0645476 0.5
78 2 0.555569 0.0487024 0.5
79 2 0.58712 0.042281 0.5
80 2 0.670587 0.0345176 0.5
81 1 0.679473 0.0721402 0.5
82 2 0.726504 0.0422341 0.5
83 2 0.741697 0.0641688 0.5
84 2 0.75766 0.0512944 0.5
85 2 0.79229 0.0755266 0.5
86 2 0.831227 0.051415 0.5
87 2 0.851095 0.0662323 0.5
88 1 0.896645 0.0776992 0.5
89 2 0.958411 0.0790881 0.5
90 2 0.997997 0.0970157 0.5
91 2 0.977356 0.0665978 0.5
92 2 0.0529295 0.0970927 0.5
93 2 0.0707255 0.0926044 0.5
94 2 0.129556 0.0903791 0.5
95 2 0.127999 0.123461 0.5
96 2 0.157204 0.0709701 0.5
97 2 0.168392 0.112512 0.5
98 2 0.255133 0.117831 0.5
99 2 0.302329 0.0814686 0.5
100 2 0.276481 0.0956043 0.5
101 2 0.312997 0.0727103 0.5
102 1 0.372203 0.0983108 0.5
103 2 0.3717 0.109668 0.5
104 2 0.459701 0.105604 0.5
105 2 0.435903 0.119807 0.5
106 2 0.492915 0.120955 0.5
107 2 0.532172 0.126288 0.5
108 2 0.538575 0.0739028 0.5
109 2 0.600881 0.104717 0.5
110 1 0.640878 0.0923313 0.5
111 2 0.688073 0.0963485 0.5
112 2 0.70924 0.082237 0.5
113 2 0.771928 0.0644364 0.5
114 2 0.749388 0.117651 0.5
115 2 0.78162 0.0702301 0.5
116 2 0.857655 0.0834998 0.5
117 2 0.858635 0.0872201 0.5
118 2 0.912614 0.105331 0.5
119 2 0.915515 0.0854862 0.5
120 2 0.984404 0.0761359 0.5
121 2 0.987625 0.133599 0.5
122 2 0.0431378 0.100756 0.5
123 2 0.0429112 0.150625 0.5
124 2 0.0804431 0.161429 0.5
125 2 0.1602 0.104411 0.5
126 2 0.129601 0.142222 0.5
127 2 0.178043 0.120277 0.5
128 2 0.246764 0.103392 0.5
129 2 0.261259 0.115522 0.5
130 2 0.29738 0.137483 0.5
131 2 0.359923 0.150988 0.5
132 2 0.333078 0.131356 0.5
133 2 0.420987 0.102868 0.5
134 2 0.458178 0.14956 0.5
135 1 0.472034 0.141568 0.5
136 2 0.52674 0.134543 0.5
137 2 0.56891 0.1326 0.5
138 2 0.543712 0.128652 0.5
139 2 0.603987 0.157074 0.5
140 2 0.635202 0.141151 0.5
141 2 0.665032 0.171315 0.5
142 2 0.721436 0.164054 0.5
143 1 0.741238 0.139236 0.5
144 2 0.78921 0.167027 0.5
145 2 0.824824 0.135329 0.5
146 2 0.839639 0.12815 0.5
147 2 0.861387 0.140698 0.5
148 2 0.876582 0.120186 0.5
149 2 0.928713 0.114623 0.5
150 2 0.984526 0.124515 0.5
151 2 0.0107796 0.153768 0.5
152 2 0.0721592 0.165604 0.5
153 2 0.0967129 0.198249 0.5
154 2 0.114423 0.165254 0.5
155 2 0.130525 0.171662 0.5
156 2 0.14087 0.171044 0.5
157 2 0.219326 0.187139 0.5
158 2 0.260579 0.172393 0.5
159 2 0.277334 0.193693 0.5
160 2 0.266434 0.157748 0.5
161 2 0.357392 0.193552 0.5
162 2 0.382712 0.163152 0.5
163 2 0.436041 0.141376 0.5
164 2 0.444245 0.141446 0.5
165 2 0.451991 0.159552 0.5
166 2 0.536017 0.190767 0.5
167 2 0.562477 0.18123 0.5
168 2 0.563808 0.134815 0.5
169 2 0.600591 0.171961 0.5
170 2 0.662831 0.185547 0.5
171 2 0.696071 0.145306 0.5
172 2 0.700704 0.144795 0.5
173 2 0.717143 0.177189 0.5
174 2 0.764229 0.142849 0.5
175 2 0.778832 0.133807 0.5
176 1 0.842333 0.170627 0.5
177 2 0.881833 0.144765 0.5
178 1 0.892158 0.169013 0.5
179 2 0.900926 0.182321 0.5
180 2 0.00309447 0.129884 0.5
181 2 0.0340117 0.189396 0.5
182 2 0.0290789 0.22371 0.5
183 2 0.0734087 0.200372 0.5
184 2 0.0854466 0.178039 0.5
185 2 0.163868 0.230967 0.5
186 2 0.168934 0.241422 0.5
187 2 0.231354 0.229198 0.5
188 2 0.201853 0.197757 0.5
189 2 0.23746 0.181326 0.5
190 2 0.271149 0.21406 0.5
191 2 0.354121 0.228012 0.5
192 2 0.337337 0.207228 0.5
193 2 0.399484 0.213298 0.5
194 2 0.443708 0.173351 0.5
195 2 0.430418 0.200949 0.5
196 2 0.463227 0.196388 0.5
197 2 0.559165 0.218239 0.5
198 2 0.601781 0.186151 0.5
199 2 0.616619 0.192609 0.5
200 2 0.60586 0.222358 0.5
201 2 0.670453 0.174111 0.5
202 2 0.690917 0.221063 0.5
203 2 0.766544 0.222123 0.5
204 2 0.755908 0.167085 0.5
205 2 0.769838 0.19909 0.5
206 1 0.843774 0.206868 0.5
207 2 0.886318 0.197286 0.5
208 2 0.886489 0.178602 0.5
209 2 0.92184 0.220613 0.5
210 2 0.967588 0.188019 0.5
211 2 0.0267035 0.261334 0.5
212 2 0.03677 0.270014 0.5
213 2 0.0993506 0.220283 0.5
214 2 0.13727 0.244819 0.5
215 2 0.147827 0.249828 0.5
216 2 0.163942 0.258023 0.5
217 2 0.165863 0.208179 0.5
218 2 0.198137 0.245596 0.5
219 2 0.255125 0.239697 0.5
220 2 0.268076 0.255247 0.5
221 2 0.304989 0.202178 0.5
222 2 0.394766 0.229782 0.5
223 2 0.412494 0.24692 0.5
224 1 0.428713 0.245668 0.5
225 2 0.45926 0.243746 0.5
226 2 0.526556 0.220961 0.5
227 2 0.528833 0.23694 0.5
228 2 0.603192 0.21647 0.5
229 2 0.586673 0.271899 0.5
230 2 0.648827 0.236164 0.5
231 2 0.666751 0.213872 0.5
232 2 0.731947 0.248228 0.5
233 2 0.709952 0.26529 0.5
234 2 0.766146 0.213149 0.5
235 2 0.771103 0.205879 0.5
236 1 0.820659 0.240431 0.5
237 2 0.864387 0.239249 0.5
238 2 0.907499 0.217748 0.5
239 2 0.930811 0.208581 0.5
240 2 0.949138 0.217382 0.5
241 2 0.0364437 0.252208 0.5
242 2 0.018028 0.261098 0.5
243 2 0.0851918 0.254637 0.5
244 2 0.138524 0.26518 0.5
245 2 0.15785 0.274828 0.5
246 2 0.195803 0.250635 0.5
247 2 0.167024 0.265238 0.5
248 2 0.254482 0.262028 0.5
249 2 0.273893 0.276123 0.5
250 2 0.292003 0.272075 0.5
251 2 0.321573 0.229669 0.5
252 2 0.366069 0.292906 0.5
253 2 0.383632 0.304209 0.5
254 2 0.405676 0.269877 0.5
255 1 0.475508 0.25845 0.5
256 2 0.463879 0.297232 0.5
257 2 0.534558 0.239114 0.5
258 2 0.551113 0.301306 0.5
259 2 0.626493 0.279865 0.5
260 2 0.641451 0.293126 0.5
261 2 0.692297 0.302843 0.5
262 2 0.722641 0.232524 0.5
263 2 0.751739 0.301768 0.5
264 2 0.778665 0.27992 0.5
265 2 0.779489 0.240096 0.5
266 2 0.871413 0.298321 0.5
267 2 0.862525 0.256569 0.5