ITEM: TIMESTEP
0
ITEM: NUMBER OF ATOMS
900
ITEM: BOX BOUNDS pp pp pp
0.0000000000000000e+00 3.0000000000000000e+02
0.0000000000000000e+00 3.0000000000000000e+02
-5.0000000000000000e+00 5.0000000000000000e+00
ITEM: ATOMS id type xs ys zs
1 2 0 0 0.5
2 2 0.0333333 0 0.5
3 2 0.0666667 0 0.5
4 2 0.1 0 0.5
5 1 0.133333 0 0.5
6 2 0.166667 0 0.5
7 1 0.2 0 0.5
8 2 0.233333 0 0.5
9 2 0.266667 0 0.5
10 2 0.3 0 0.5
11 1 0.333333 0 0.5
12 2 0.366667 0 0.5
13 2 0.4 0 0.5
14 2 0.433333 0 0.5
15 2 0.466667 0 0.5
16 2 0.5 0 0.5
17 2 0.533333 0 0.5
18 2 0.566667 0 0.5
19 2 0.6 0 0.5
20 1 0.633333 0 0.5
21 2 0.666667 0 0.5
22 2 0.7 0 0.5
23 2 0.733333 0 0.5
24 2 0.766667 0 0.5
25 2 0.8 0 0.5
26 1 0.833333 0 0.5
27 1 0.866667 0 0.5
28 1 0.9 0 0.5
29 2 0.933333 0 0.5
30 2 0.966667 0 0.5
31 2 0 0.0333333 0.5
32 1 0.0333333 0.0333333 0.5
33 1 0.0666667 0.0333333 0.5
34 2 0.1 0.0333333 0.5
35 1 0.133333 0.0333333 0.5
36 1 0.166667 0.0333333 0.5
37 2 0.2 0.0333333 0.5
38 2 0.233333 0.0333333 0.5
39 1 0.266667 0.0333333 0.5
40 2 0.3 0.0333333 0.5
41 2 0.333333 0.0333333 0.5
42 2 0.366667 0.0333333 0.5
43 2 0.4 0.0333333 0.5
44 2 0.433333 0.0333333 0.5
45 2 0.466667 0.0333333 0.5
46 2 0.5 0.0333333 0.5
47 2 0.533333 0.0333333 0.5
48 1 0.566667 0.0333333 0.5
49 2 0.6 0.0333333 0.5
50 1 0.633333 0.0333333 0.5
51 2 0.666667 0.0333333 0.5
52 2 0.7 0.0333333 0.5
53 2 0.733333 0.0333333 0.5
54 2 0.766667 0.0333333 0.5
55 2 0.8 0.0333333 0.5
56 2 0.833333 0.0333333 0.5
57 2 0.866667 0.0333333 0.5
58 2 0.9 0.0333333 0.5
59 2 0.933333 0.0333333 0.5
60 2 0.966667 0.0333333 0.5
61 2 0 0.0666667 0.5
62 1 0.0333333 0.0666667 0.5
63 2 0.0666667 0.0666667 0.5
64 2 0.1 0.0666667 0.5
65 2 0.133333 0.0666667 0.5
66 2 0.166667 0.0666667 0.5
67 2 0.2 0.0666667 0.5
68 2 0.233333 0.0666667 0.5
69 2 0.266667 0.0666667 0.5
70 1 0.3 0.0666667 0.5
71 2 0.333333 0.0666667 0.5
72 1 0.366667 0.0666667 0.5
73 2 0.4 0.0666667 0.5
74 2 0.433333 0.0666667 0.5
75 1 0.466667 0.0666667 0.5
76 2 0.5 0.0666667 0.5
77 2 0.533333 0.0666667 0.5
78 2 0.566667 0.0666667 0.5
79 2 0.6 0.0666667 0.5
80 2 0.633333 0.0666667 0.5
81 1 0.666667 0.0666667 0.5
82 2 0.7 0.0666667 0.5
83 1 0.733333 0.0666667 0.5
84 1 0.766667 0.0666667 0.5
85 1 0.8 0.0666667 0.5
86 2 0.833333 0.0666667 0.5
87 2 0.866667 0.0666667 0.5
88 1 0.9 0.0666667 0.5
89 2 0.933333 0.0666667 0.5
90 2 0.966667 0.0666667 0.5
91 2 0 0.1 0.5
92 2 0.0333333 0.1 0.5
93 2 0.0666667 0.1 0.5
94 2 0.1 0.1 0.5
95 2 0.133333 0.1 0.5
96 2 0.166667 0.1 0.5
97 2 0.2 0.1 0.5
98 1 0.233333 0.1 0.5
99 2 0.266667 0.1 0.5
100 2 0.3 0.1 0.5
101 2 0.333333 0.1 0.5
102 1 0.366667 0.1 0.5
103 2 0.4 0.1 0.5
104 2 0.433333 0.1 0.5
105 1 0.466667 0.1 0.5
106 1 0.5 0.1 0.5
107 2 0.533333 0.1 0.5
108 2 0.566667 0.1 0.5
109 2 0.6 0.1 0.5
110 1 0.633333 0.1 0.5
111 2 0.666667 0.1 0.5
112 2 0.7 0.1 0.5
113 2 0.733333 0.1 0.5
114 1 0.766667 0.1 0.5
115 2 0.8 0.1 0.5
116 2 0.833333 0.1 0.5
117 2 0.866667 0.1 0.5
118 2 0.9 0.1 0.5
119 2 0.933333 0.1 0.5
120 2 0.966667 0.1 0.5
121 2 0 0.133333 0.5
122 2 0.0333333 0.133333 0.5
123 2 0.0666667 0.133333 0.5
124 2 0.1 0.133333 0.5
125 2 0.133333 0.133333 0.5
126 1 0.166667 0.133333 0.5
127 2 0.2 0.133333 0.5
128 2 0.233333 0.133333 0.5
129 2 0.266667 0.133333 0.5
130 2 0.3 0.133333 0.5
131 2 0.333333 0.133333 0.5
132 1 0.366667 0.133333 0.5
133 1 0.4 0.133333 0.5
134 1 0.433333 0.133333 0.5
135 1 0.466667 0.133333 0.5
136 2 0.5 0.133333 0.5
137 2 0.533333 0.133333 0.5
138 1 0.566667 0.133333 0.5
139 2 0.6 0.133333 0.5
140 2 0.633333 0.133333 0.5
141 2 0.666667 0.133333 0.5
142 2 0.7 0.133333 0.5
143 1 0.733333 0.133333 0.5
144 2 0.766667 0.133333 0.5
145 2 0.8 0.133333 0.5
146 2 0.833333 0.133333 0.5
147 2 0.866667 0.133333 0.5
148 2 0.9 0.133333 0.5
149 2 0.933333 0.133333 0.5
150 2 0.966667 0.133333 0.5
151 2 0 0.166667 0.5
152 2 0.0333333 0.166667 0.5
153 2 0.0666667 0.166667 0.5
154 2 0.1 0.166667 0.5
155 2 0.133333 0.166667 0.5
156 2 0.166667 0.166667 0.5
157 2 0.2 0.166667 0.5
158 2 0.233333 0.166667 0.5
159 2 0.266667 0.166667 0.5
160 2 0.3 0.166667 0.5
161 2 0.333333 0.166667 0.5
162 2 0.366667 0.166667 0.5
163 2 0.4 0.166667 0.5
164 1 0.433333 0.166667 0.5
165 2 0.466667 0.166667 0.5
166 2 0.5 0.166667 0.5
167 1 0.533333 0.166667 0.5
168 2 0.566667 0.166667 0.5
169 2 0.6 0.166667 0.5
170 2 0.633333 0.166667 0.5
171 2 0.666667 0.166667 0.5
172 2 0.7 0.166667 0.5
173 2 0.733333 0.166667 0.5
174 1 0.766667 0.166667 0.5
175 2 0.8 0.166667 0.5
176 1 0.833333 0.166667 0.5
177 2 0.866667 0.166667 0.5
178 1 0.9 0.166667 0.5
179 2 0.933333 0.166667 0.5
180 2 0.966667 0.166667 0.5
181 2 0 0.2 0.5
182 2 0.0333333 0.2 0.5
183 2 0.0666667 0.2 0.5
184 2 0.1 0.2 0.5
185 2 0.133333 0.2 0.5
186 2 0.166667 0.2 0.5
187 2 0.2 0.2 0.5
188 2 0.233333 0.2 0.5
189 2 0.266667 0.2 0.5
190 2 0.3 0.2 0.5
191 2 0.333333 0.2 0.5
192 2 0.366667 0.2 0.5
193 2 0.4 0.2 0.5
194 2 0.433333 0.2 0.5
195 2 0.466667 0.2 0.5
196 2 0.5 0.2 0.5
197 2 0.533333 0.2 0.5
198 2 0.566667 0.2 0.5
199 2 0.6 0.2 0.5
200 2 0.633333 0.2 0.5
201 2 0.666667 0.2 0.5
202 2 0.7 0.2 0.5
203 2 0.733333 0.2 0.5
204 1 0.766667 0.2 0.5
205 2 0.8 0.2 0.5
206 1 0.833333 0.2 0.5
207 1 0.866667 0.2 0.5
208 2 0.9 0.2 0.5
209 2 0.933333 0.2 0.5
210 2 0.966667 0.2 0.5
211 2 0 0.233333 0.5
212 2 0.0333333 0.233333 0.5
213 2 0.0666667 0.233333 0.5
214 1 0.1 0.233333 0.5
215 2 0.133333 0.233333 0.5
216 2 0.166667 0.233333 0.5
217 2 0.2 0.233333 0.5
218 2 0.233333 0.233333 0.5
219 2 0.266667 0.233333 0.5
220 2 0.3 0.233333 0.5
221 2 0.333333 0.233333 0.5
222 2 0.366667 0.233333 0.5
223 2 0.4 0.233333 0.5
224 1 0.433333 0.233333 0.5
225 2 0.466667 0.233333 0.5
226 1 0.5 0.233333 0.5
227 2 0.533333 0.233333 0.5
228 2 0.566667 0.233333 0.5
229 2 0.6 0.233333 0.5
230 2 0.633333 0.233333 0.5
231 2 0.666667 0.233333 0.5
232 2 0.7 0.233333 0.5
233 2 0.733333 0.233333 0.5
234 2 0.766667 0.233333 0.5
235 2 0.8 0.233333 0.5
236 1 0.833333 0.233333 0.5
237 2 0.866667 0.233333 0.5
238 2 0.9 0.233333 0.5
239 2 0.933333 0.233333 0.5
240 2 0.966667 0.233333 0.5
241 2 0 0.266667 0.5
242 2 0.0333333 0.266667 0.5
243 2 0.0666667 0.266667 0.5
244 2 0.1 0.266667 0.5
245 2 0.133333 0.266667 0.5
246 1 0.166667 0.266667 0.5
247 1 0.2 0.266667 0.5
248 2 0.233333 0.266667 0.5
249 2 0.266667 0.266667 0.5
250 2 0.3 0.266667 0.5
251 2 0.333333 0.266667 0.5
252 2 0.366667 0.266667 0.5
253 2 0.4 0.266667 0.5
254 2 0.433333 0.266667 0.5
255 1 0.466667 0.266667 0.5
256 2 0.5 0.266667 0.5
257 2 0.533333 0.266667 0.5
258 2 0.566667 0.266667 0.5
259 2 0.6 0.266667 0.5
260 1 0.633333 0.266667 0.5
261 2 0.666667 0.266667 0.5
262 2 0.7 0.266667 0.5
263 2 0.733333 0.266667 0.5
264 2 0.766667 0.266667 0.5
265 1 0.8 0.266667 0.5
266 2 0.833333 0.266667 0.5
267 2 0.866667 0.266667 0.5
268 2 0.9 0.266667 0.5
269 2 0.933333 0.266667 0.5
270 2 0.966667 0.266667 0.5
271 2 0 0.3 0.5
272 2 0.0333333 0.3 0.5
273 1 0.0666667 0.3 0.5
274 2 0.1 0.3 0.5
275 1 0.133333 0.3 0.5
276 2 0.166667 0.3 0.5
277 1 0.2 0.3 0.5
278 1 0.233333 0.3 0.5
279 1 0.266667 0.3 0.5
280 2 0.3 0.3 0.5
281 1 0.333333 0.3 0.5
282 2 0.366667 0.3 0.5
283 2 0.4 0.3 0.5
284 1 0.433333 0.3 0.5
285 2 0.466667 0.3 0.5
286 2 0.5 0.3 0.5
287 2 0.533333 0.3 0.5
288 1 0.566667 0.3 0.5
289 2 0.6 0.3 0.5
290 2 0.633333 0.3 0.5
291 1 0.666667 0.3 0.5
292 1 0.7 0.3 0.5
293 2 0.733333 0.3 0.5
294 1 0.766667 0.3 0.5
295 1 0.8 0.3 0.5
296 2 0.833333 0.3 0.5
297 2 0.866667 0.3 0.5
298 2 0.9 0.3 0.5
299 2 0.933333 0.3 0.5
300 2 0.966667 0.3 0.5
301 1 0 0.333333 0.5
302 2 0.0333333 0.333333 0.5
303 2 0.0666667 0.333333 0.5
304 2 0.1 0.333333 0.5
305 2 0.133333 0.333333 0.5
306 2 0.166667 0.333333 0.5
307 2 0.2 0.333333 0.5
308 2 0.233333 0.333333 0.5
309 2 0.266667 0.333333 0.5
310 2 0.3 0.333333 0.5
311 1 0.333333 0.333333 0.5
312 1 0.366667 0.333333 0.5
313 2 0.4 0.333333 0.5
314 2 0.433333 0.333333 0.5
315 2 0.466667 0.333333 0.5
316 2 0.5 0.333333 0.5
317 2 0.533333 0.333333 0.5
318 2 0.566667 0.333333 0.5
319 2 0.6 0.333333 0.5
320 2 0.633333 0.333333 0.5
321 2 0.666667 0.333333 0.5
322 2 0.7 0.333333 0.5
323 1 0.733333 0.333333 0.5
324 2 0.766667 0.333333 0.5
325 1 0.8 0.333333 0.5
326 2 0.833333 0.333333 0.5
327 2 0.866667 0.333333 0.5
328 2 0.9 0.333333 0.5
329 2 0.933333 0.333333 0.5
330 2 0.966667 0.333333 0.5
331 1 0 0.366667 0.5
332 2 0.0333333 0.366667 0.5
333 2 0.0666667 0.366667 0.5
334 2 0.1 0.366667 0.5
335 1 0.133333 0.366667 0.5
336 2 0.166667 0.366667 0.5
337 1 0.2 0.366667 0.5
338 2 0.233333 0.366667 0.5
339 2 0.266667 0.366667 0.5
340 1 0.3 0.366667 0.5
341 1 0.333333 0.366667 0.5
342 1 0.366667 0.366667 0.5
343 2 0.4 0.366667 0.5
344 2 0.433333 0.366667 0.5
345 2 0.466667 0.366667 0.5
346 2 0.5 0.366667 0.5
347 1 0.533333 0.366667 0.5
348 1 0.566667 0.366667 0.5
349 2 0.6 0.366667 0.5
350 1 0.633333 0.366667 0.5
351 2 0.666667 0.366667 0.5
352 2 0.7 0.366667 0.5
353 2 0.733333 0.366667 0.5
354 2 0.766667 0.366667 0.5
355 2 0.8 0.366667 0.5
356 1 0.833333 0.366667 0.5
357 2 0.866667 0.366667 0.5
358 2 0.9 0.366667 0.5
359 1 0.933333 0.366667 0.5
360 2 0.966667 0.366667 0.5
361 2 0 0.4 0.5
362 2 0.0333333 0.4 0.5
363 2 0.0666667 0.4 0.5
364 2 0.1 0.4 0.5
365 2 0.133333 0.4 0.5
366 2 0.166667 0.4 0.5
367 2 0.2 0.4 0.5
368 2 0.233333 0.4 0.5
369 2 0.266667 0.4 0.5
370 1 0.3 0.4 0.5
371 2 0.333333 0.4 0.5
372 2 0.366667 0.4 0.5
373 2 0.4 0.4 0.5
374 2 0.433333 0.4 0.5
375 2 0.466667 0.4 0.5
376 2 0.5 0.4 0.5
377 2 0.533333 0.4 0.5
378 2 0.566667 0.4 0.5
379 2 0.6 0.4 0.5
380 2 0.633333 0.4 0.5
381 2 0.666667 0.4 0.5
382 2 0.7 0.4 0.5
383 2 0.733333 0.4 0.5
384 2 0.766667 0.4 0.5
385 2 0.8 0.4 0.5
386 2 0.833333 0.4 0.5
387 2 0.866667 0.4 0.5
388 2 0.9 0.4 0.5
389 2 0.933333 0.4 0.5
390 2 0.966667 0.4 0.5
391 2 0 0.433333 0.5
392 2 0.0333333 0.433333 0.5
393 2 0.0666667 0.433333 0.5
394 2 0.1 0.433333 0.5
395 2 0.133333 0.433333 0.5
396 2 0.166667 0.433333 0.5
397 2 0.2 0.433333 0.5
398 2 0.233333 0.433333 0.5
399 1 0.266667 0.433333 0.5
400 2 0.3 0.433333 0.5
401 1 0.333333 0.433333 0.5
402 1 0.366667 0.433333 0.5
403 2 0.4 0.433333 0.5
404 2 0.433333 0.433333 0.5
405 1 0.466667 0.433333 0.5
406 1 0.5 0.433333 0.5
407 2 0.533333 0.433333 0.5
408 2 0.566667 0.433333 0.5
409 2 0.6 0.433333 0.5
410 2 0.633333 0.433333 0.5
411 2 0.666667 0.433333 0.5
412 1 0.7 0.433333 0.5
413 2 0.733333 0.433333 0.5
414 1 0.766667 0.433333 0.5
415 2 0.8 0.433333 0.5
416 1 0.833333 0.433333 0.5
417 2 0.866667 0.433333 0.5
418 1 0.9 0.433333 0.5
419 2 0.933333 0.433333 0.5
420 2 0.966667 0.433333 0.5
421 2 0 0.466667 0.5
422 2 0.0333333 0.466667 0.5
423 2 0.0666667 0.466667 0.5
424 2 0.1 0.466667 0.5
425 2 0.133333 0.466667 0.5
426 1 0.166667 0.466667 0.5
427 2 0.2 0.466667 0.5
428 2 0.233333 0.466667 0.5
429 2 0.266667 0.466667 0.5
430 1 0.3 0.466667 0.5
431 2 0.333333 0.466667 0.5
432 2 0.366667 0.466667 0.5
433 2 0.4 0.466667 0.5
434 2 0.433333 0.466667 0.5
435 2 0.466667 0.466667 0.5
436 2 0.5 0.466667 0.5
437 2 0.533333 0.466667 0.5
438 2 0.566667 0.466667 0.5
439 2 0.6 0.466667 0.5
440 2 0.633333 0.466667 0.5
441 2 0.666667 0.466667 0.5
442 2 0.7 0.466667 0.5
443 2 0.733333 0.466667 0.5
444 2 0.766667 0.466667 0.5
445 2 0.8 0.466667 0.5
446 2 0.833333 0.466667 0.5
447 2 0.866667 0.466667 0.5
448 2 0.9 0.466667 0.5
449 1 0.933333 0.466667 0.5
450 2 0.966667 0.466667 0.5
451 2 0 0.5 0.5
452 2 0.0333333 0.5 0.5
453 2 0.0666667 0.5 0.5
454 2 0.1 0.5 0.5
455 2 0.133333 0.5 0.5
456 2 0.166667 0.5 0.5
457 2 0.2 0.5 0.5
458 2 0.233333 0.5 0.5
459 1 0.266667 0.5 0.5
460 2 0.3 0.5 0.5
461 2 0.333333 0.5 0.5
462 2 0.366667 0.5 0.5
463 2 0.4 0.5 0.5
464 2 0.433333 0.5 0.5
465 2 0.466667 0.5 0.5
466 2 0.5 0.5 0.5
467 2 0.533333 0.5 0.5
468 2 0.566667 0.5 0.5
469 1 0.6 0.5 0.5
470 2 0.633333 0.5 0.5
471 2 0.666667 0.5 0.5
472 2 0.7 0.5 0.5
473 2 0.733333 0.5 0.5
474 2 0.766667 0.5 0.5
475 2 0.8 0.5 0.5
476 2 0.833333 0.5 0.5
477 2 0.866667 0.5 0.5
478 1 0.9 0.5 0.5
479 2 0.933333 0.5 0.5
480 2 0.966667 0.5 0.5
481 2 0 0.533333 0.5
482 2 0.0333333 0.533333 0.5
483 2 0.0666667 0.533333 0.5
484 2 0.1 0.533333 0.5
485 2 0.133333 0.533333 0.5
486 2 0.166667 0.533333 0.5
487 1 0.2 0.533333 0.5
488 2 0.233333 0.533333 0.5
489 2 0.266667 0.533333 0.5
490 1 0.3 0.533333 0.5
491 1 0.333333 0.533333 0.5
492 2 0.366667 0.533333 0.5
493 2 0.4 0.533333 0.5
494 2 0.433333 0.533333 0.5
495 1 0.466667 0.533333 0.5
496 2 0.5 0.533333 0.5
497 2 0.533333 0.533333 0.5
498 2 0.566667 0.533333 0.5
499 2 0.6 0.533333 0.5
500 1 0.633333 0.533333 0.5
501 2 0.666667 0.533333 0.5
502 1 0.7 0.533333 0.5
503 2 0.733333 0.533333 0.5
504 1 0.766667 0.533333 0.5
505 2 0.8 0.533333 0.5
506 2 0.833333 0.533333 0.5
507 2 0.866667 0.533333 0.5
508 2 0.9 0.533333 0.5
509 2 0.933333 0.533333 0.5
510 2 0.966667 0.533333 0.5
511 1 0 0.566667 0.5
512 1 0.0333333 0.566667 0.5
513 2 0.0666667 0.566667 0.5
514 2 0.1 0.566667 0.5
515 2 0.133333 0.566667 0.5
516 2 0.166667 0.566667 0.5
517 1 0.2 0.566667 0.5
518 2 0.233333 0.566667 0.5
519 2 0.266667 0.566667 0.5
520 2 0.3 0.566667 0.5
521 2 0.333333 0.566667 0.5
522 2 0.366667 0.566667 0.5
523 2 0.4 0.566667 0.5
524 2 0.433333 0.566667 0.5
525 2 0.466667 0.566667 0.5
526 2 0.5 0.566667 0.5
527 2 0.533333 0.566667 0.5
528 2 0.566667 0.566667 0.5
529 2 0.6 0.566667 0.5
530 2 0.633333 0.566667 0.5
531 1 0.666667 0.566667 0.5
532 1 0.7 0.566667 0.5
533 2 0.733333 0.566667 0.5
534 2 0.766667 0.566667 0.5
535 2 0.8 0.566667 0.5
536 2 0.833333 0.566667 0.5
537 2 0.866667 0.566667 0.5
538 1 0.9 0.566667 0.5
539 1 0.933333 0.566667 0.5
540 2 0.966667 0.566667 0.5
541 1 0 0.6 0.5
542 2 0.0333333 0.6 0.5
543 2 0.0666667 0.6 0.5
544 2 0.1 0.6 0.5
545 1 0.133333 0.6 0.5
546 2 0.166667 0.6 0.5
547 2 0.2 0.6 0.5
548 2 0.233333 0.6 0.5
549 2 0.266667 0.6 0.5
550 1 0.3 0.6 0.5
551 2 0.333333 0.6 0.5
552 1 0.366667 0.6 0.5
553 2 0.4 0.6 0.5
554 1 0.433333 0.6 0.5
555 2 0.466667 0.6 0.5
556 2 0.5 0.6 0.5
557 2 0.533333 0.6 0.5
558 2 0.566667 0.6 0.5
559 2 0.6 0.6 0.5
560 1 0.633333 0.6 0.5
561 2 0.666667 0.6 0.5
562 2 0.7 0.6 0.5
563 2 0.733333 0.6 0.5
564 2 0.766667 0.6 0.5
565 2 0.8 0.6 0.5
566 2 0.833333 0.6 0.5
567 2 0.866667 0.6 0.5
568 1 0.9 0.6 0.5
569 1 0.933333 0.6 0.5
570 2 0.966667 0.6 0.5
571 2 0 0.633333 0.5
572 2 0.0333333 0.633333 0.5
573 2 0.0666667 0.633333 0.5
574 2 0.1 0.633333 0.5
575 2 0.133333 0.633333 0.5
576 2 0.166667 0.633333 0.5
577 2 0.2 0.633333 0.5
578 2 0.233333 0.633333 0.5
579 2 0.266667 0.633333 0.5
580 2 0.3 0.633333 0.5
581 1 0.333333 0.633333 0.5
582 2 0.366667 0.633333 0.5
583 2 0.4 0.633333 0.5
584 2 0.433333 0.633333 0.5
585 2 0.466667 0.633333 0.5
586 1 0.5 0.633333 0.5
587 2 0.533333 0.633333 0.5
588 2 0.566667 0.633333 0.5
589 2 0.6 0.633333 0.5
590 2 0.633333 0.633333 0.5
591 1 0.666667 0.633333 0.5
592 1 0.7 0.633333 0.5
593 2 0.733333 0.633333 0.5
594 1 0.766667 0.633333 0.5
595 2 0.8 0.633333 0.5
596 2 0.833333 0.633333 0.5
597 2 0.866667 0.633333 0.5
598 2 0.9 0.633333 0.5
599 2 0.933333 0.633333 0.5
600 2 0.966667 0.633333 0.5
601 1 0 0.666667 0.5
602 1 0.0333333 0.666667 0.5
603 2 0.0666667 0.666667 0.5
604 2 0.1 0.666667 0.5
605 2 0.133333 0.666667 0.5
606 2 0.166667 0.666667 0.5
607 1 0.2 0.666667 0.5
608 2 0.233333 0.666667 0.5
609 1 0.266667 0.666667 0.5
610 2 0.3 0.666667 0.5
611 2 0.333333 0.666667 0.5
612 2 0.366667 0.666667 0.5
613 2 0.4 0.666667 0.5
614 2 0.433333 0.666667 0.5
615 2 0.466667 0.666667 0.5
616 1 0.5 0.666667 0.5
617 1 0.533333 0.666667 0.5
618 1 0.566667 0.666667 0.5
619 2 0.6 0.666667 0.5
620 2 0.633333 0.666667 0.5
621 2 0.666667 0.666667 0.5
622 2 0.7 0.666667 0.5
623 2 0.733333 0.666667 0.5
624 1 0.766667 0.666667 0.5
625 2 0.8 0.666667 0.5
626 2 0.833333 0.666667 0.5
627 2 0.866667 0.666667 0.5
628 2 0.9 0.666667 0.5
629 1 0.933333 0.666667 0.5
630 2 0.966667 0.666667 0.5
631 2 0 0.7 0.5
632 2 0.0333333 0.7 0.5
633 1 0.0666667 0.7 0.5
634 2 0.1 0.7 0.5
635 2 0.133333 0.7 0.5
636 2 0.166667 0.7 0.5
637 2 0.2 0.7 0.5
638 1 0.233333 0.7 0.5
639 2 0.266667 0.7 0.5
640 2 0.3 0.7 0.5
641 2 0.333333 0.7 0.5
642 2 0.366667 0.7 0.5
643 2 0.4 0.7 0.5
644 2 0.433333 0.7 0.5
645 2 0.466667 0.7 0.5
646 2 0.5 0.7 0.5
647 2 0.533333 0.7 0.5
648 1 0.566667 0.7 0.5
649 2 0.6 0.7 0.5
650 1 0.633333 0.7 0.5
651 2 0.666667 0.7 0.5
652 2 0.7 0.7 0.5
653 2 0.733333 0.7 0.5
654 2 0.766667 0.7 0.5
655 2 0.8 0.7 0.5
656 1 0.833333 0.7 0.5
657 2 0.866667 0.7 0.5
658 2 0.9 0.7 0.5
659 2 0.933333 0.7 0.5
660 2 0.966667 0.7 0.5
661 2 0 0.733333 0.5
662 2 0.0333333 0.733333 0.5
663 2 0.0666667 0.733333 0.5
664 2 0.1 0.733333 0.5
665 2 0.133333 0.733333 0.5
666 2 0.166667 0.733333 0.5
667 2 0.2 0.733333 0.5
668 1 0.233333 0.733333 0.5
669 1 0.266667 0.733333 0.5
670 2 0.3 0.733333 0.5
671 2 0.333333 0.733333 0.5
672 2 0.366667 0.733333 0.5
673 2 0.4 0.733333 0.5
674 2 0.433333 0.733333 0.5
675 2 0.466667 0.733333 0.5
676 2 0.5 0.733333 0.5
677 2 0.533333 0.733333 0.5
678 2 0.566667 0.733333 0.5
679 2 0.6 0.733333 0.5
680 2 0.633333 0.733333 0.5
681 2 0.666667 0.733333 0.5
682 1 0.7 0.733333 0.5
683 1 0.733333 0.733333 0.5
684 2 0.766667 0.733333 0.5
685 2 0.8 0.733333 0.5
686 2 0.833333 0.733333 0.5
687 1 0.866667 0.733333 0.5
688 2 0.9 0.733333 0.5
689 2 0.933333 0.733333 0.5
690 2 0.966667 0.733333 0.5
691 1 0 0.766667 0.5
692 2 0.0333333 0.766667 0.5
693 2 0.0666667 0.766667 0.5
694 2 0.1 0.766667 0.5
695 2 0.133333 0.766667 0.5
696 1 0.166667 0.766667 0.5
697 2 0.2 0.766667 0.5
698 2 0.233333 0.766667 0.5
699 2 0.266667 0.766667 0.5
700 2 0.3 0.766667 0.5
701 2 0.333333 0.766667 0.5
702 2 0.366667 0.766667 0.5
703 2 0.4 0.766667 0.5
704 2 0.433333 0.766667 0.5
705 2 0.466667 0.766667 0.5
706 2 0.5 0.766667 0.5
707 1 0.533333 0.766667 0.5
708 2 0.566667 0.766667 0.5
709 2 0.6 0.766667 0.5
710 2 0.633333 0.766667 0.5
711 1 0.666667 0.766667 0.5
712 2 0.7 0.766667 0.5
713 2 0.733333 0.766667 0.5
714 1 0.766667 0.766667 0.5
715 2 0.8 0.766667 0.5
716 2 0.833333 0.766667 0.5
717 2 0.866667 0.766667 0.5
718 2 0.9 0.766667 0.5
719 1 0.933333 0.766667 0.5
720 2 0.966667 0.766667 0.5
721 2 0 0.8 0.5
722 2 0.0333333 0.8 0.5
723 2 0.0666667 0.8 0.5
724 2 0.1 0.8 0.5
725 1 0.133333 0.8 0.5
726 2 0.166667 0.8 0.5
727 1 0.2 0.8 0.5
728 2 0.233333 0.8 0.5
729 2 0.266667 0.8 0.5
730 2 0.3 0.8 0.5
731 1 0.333333 0.8 0.5
732 2 0.366667 0.8 0.5
733 2 0.4 0.8 0.5
734 2 0.433333 0.8 0.5
735 2 0.466667 0.8 0.5
736 2 0.5 0.8 0.5
737 1 0.533333 0.8 0.5
738 2 0.566667 0.8 0.5
739 2 0.6 0.8 0.5
740 2 0.633333 0.8 0.5
741 2 0.666667 0.8 0.5
742 2 0.7 0.8 0.5
743 2 0.733333 0.8 0.5
744 2 0.766667 0.8 0.5
745 2 0.8 0.8 0.5
746 2 0.833333 0.8 0.5
747 2 0.866667 0.8 0.5
748 2 0.9 0.8 0.5
749 2 0.933333 0.8 0.5
750 2 0.966667 0.8 0.5
751 2 0 0.833333 0.5
752 2 0.0333333 0.833333 0.5
753 2 0.0666667 0.833333 0.5
754 2 0.1 0.833333 0.5
755 2 0.133333 0.833333 0.5
756 2 0.166667 0.833333 0.5
757 2 0.2 0.833333 0.5
758 2 0.233333 0.833333 0.5
759 2 0.266667 0.833333 0.5
760 2 0.3 0.833333 0.5
761 2 0.333333 0.833333 0.5
762 2 0.366667 0.833333 0.5
763 2 0.4 0.833333 0.5
764 1 0.433333 0.833333 0.5
765 2 0.466667 0.833333 0.5
766 2 0.5 0.833333 0.5
767 1 0.533333 0.833333 0.5
768 2 0.566667 0.833333 0.5
769 2 0.6 0.833333 0.5
770 1 0.633333 0.833333 0.5
771 1 0.666667 0.833333 0.5
772 1 0.7 0.833333 0.5
773 1 0.733333 0.833333 0.5
774 2 0.766667 0.833333 0.5
775 1 0.8 0.833333 0.5
776 2 0.833333 0.833333 0.5
777 2 0.866667 0.833333 0.5
778 2 0.9 0.833333 0.5
779 2 0.933333 0.833333 0.5
780 2 0.966667 0.833333 0.5
781 2 0 0.866667 0.5
782 2 0.0333333 0.866667 0.5
783 2 0.0666667 0.866667 0.5
784 2 0.1 0.866667 0.5
785 2 0.133333 0.866667 0.5
786 2 0.166667 0.866667 0.5
787 2 0.2 0.866667 0.5
788 2 0.233333 0.866667 0.5
789 2 0.266667 0.866667 0.5
790 2 0.3 0.866667 0.5
791 2 0.333333 0.866667 0.5
792 1 0.366667 0.866667 0.5
793 2 0.4 0.866667 0.5
794 2 0.433333 0.866667 0.5
795 2 0.466667 0.866667 0.5
796 2 0.5 0.866667 0.5
797 2 0.533333 0.866667 0.5
798 1 0.566667 0.866667 0.5
799 2 0.6 0.866667 0.5
800 2 0.633333 0.866667 0.5
801 2 0.666667 0.866667 0.5
802 2 0.7 0.866667 0.5
803 2 0.733333 0.866667 0.5
804 1 0.766667 0.866667 0.5
805 2 0.8 0.866667 0.5
806 2 0.833333 0.866667 0.5
807 2 0.866667 0.866667 0.5
808 2 0.9 0.866667 0.5
809 2 0.933333 0.866667 0.5
810 2 0.966667 0.866667 0.5
811 1 0 0.9 0.5
812 2 0.0333333 0.9 0.5
813 1 0.0666667 0.9 0.5
814 2 0.1 0.9 0.5
815 2 0.133333 0.9 0.5
816 2 0.166667 0.9 0.5
817 2 0.2 0.9 0.5
818 2 0.233333 0.9 0.5
819 2 0.266667 0.9 0.5
820 1 0.3 0.9 0.5
821 2 0.333333 0.9 0.5
822 2 0.366667 0.9 0.5
823 2 0.4 0.9 0.5
824 2 0.433333 0.9 0.5
825 2 0.466667 0.9 0.5
826 2 0.5 0.9 0.5
827 2 0.533333 0.9 0.5
828 1 0.566667 0.9 0.5
829 2 0.6 0.9 0.5
830 2 0.633333 0.9 0.5
831 1 0.666667 0.9 0.5
832 2 0.7 0.9 0.5
833 2 0.733333 0.9 0.5
834 2 0.766667 0.9 0.5
835 2 0.8 0.9 0.5
836 2 0.833333 0.9 0.5
837 2 0.866667 0.9 0.5
838 2 0.9 0.9 0.5
839 2 0.933333 0.9 0.5
840 2 0.966667 0.9 0.5
841 2 0 0.933333 0.5
842 2 0.0333333 0.933333 0.5
843 2 0.0666667 0.933333 0.5
844 1 0.1 0.933333 0.5
845 1 0.133333 0.933333 0.5
846 2 0.166667 0.933333 0.5
847 2 0.2 0.933333 0.5
848 2 0.233333 0.933333 0.5
849 2 0.266667 0.933333 0.5
850 2 0.3 0.933333 0.5
851 2 0.333333 0.933333 0.5
852 2 0.366667 0.933333 0.5
853 1 0.4 0.933333 0.5
854 2 0.433333 0.933333 0.5
855 2 0.466667 0.933333 0.5
856 2 0.5 0.933333 0.5
857 1 0.533333 0.933333 0.5
858 2 0.566667 0.933333 0.5
859 1 0.6 0.933333 0.5
860 1 0.633333 0.933333 0.5
861 2 0.666667 0.933333 0.5
862 2 0.7 0.933333 0.5
863 2 0.733333 0.933333 0.5
864 2 0.766667 0.933333 0.5
865 1 0.8 0.933333 0.5
866 2 0.833333 0.933333 0.5
867 2 0.866667 0.933333 0.5
868 2 0.9 0.933333 0.5
869 2 0.933333 0.933333 0.5
870 2 0.966667 0.933333 0.5
871 2 0 0.966667 0.5
872 2 0.0333333 0.966667 0.5
873 2 0.0666667 0.966667 0.5
874 2 0.1 0.966667 0.5
875 1 0.133333 0.966667 0.5
876 2 0.166667 0.966667 0.5
877 2 0.2 0.966667 0.5
878 1 0.233333 0.966667 0.5
879 2 0.266667 0.966667 0.5
880 2 0.3 0.966667 0.5
881 2 0.333333 0.966667 0.5
882 2 0.366667 0.966667 0.5
883 2 0.4 0.966667 0.5
884 2 0.433333 0.966667 0.5
885 2 0.466667 0.966667 0.5
886 2 0.5 0.966667 0.5
887 1 0.533333 0.966667 0.5
888 2 0.566667 0.966667 0.5
889 2 0.6 0.966667 0.5
890 2 0.633333 0.966667 0.5
891 2 0.666667 0.966667 0.5
892 2 0.7 0.966667 0.5
893 2 0.733333 0.966667 0.5
894 1 0.766667 0.966667 0.5
895 2 0.8 0.966667 0.5
896 2 0.833333 0.966667 0.5
897 2 0.866667 0.966667 0.5
898 2 0.9 0.966667 0.5
899 1 0.933333 0.966667 0.5
900 2 0.966667 0.966667 0.5
ITEM: TIMESTEP
1000
ITEM: NUMBER OF ATOMS
900
ITEM: BOX BOUNDS pp pp pp
-7.4489042689093878e+00 3.0744890426890788e+02
-7.4489042689093878e+00 3.0744890426890788e+02
-5.0000000000000000e+00 5.0000000000000000e+00
ITEM: ATOMS id type xs ys zs
1 2 0.99721 0.987375 0.5
2 2 0.0412272 0.98228 0.5
3 2 0.102583 0.017543 0.5
4 2 0.13465 0.969438 0.5
5 1 0.123482 0.00857711 0.5
6 2 0.15697 0.966297 0.5
7 1 0.198773 0.994213 0.5
8 2 0.206482 0.982261 0.5
9 2 0.285233 0.0106781 0.5
10 2 0.29783 0.987418 0.5
11 1 0.338387 0.00391261 0.5
12 2 0.359732 0.975197 0.5
13 2 0.38398 0.980319 0.5
14 2 0.464195 0.990986 0.5
15 2 0.433176 0.0354319 0.5
16 2 0.479572 0.00739744 0.5
17 2 0.52749 0.0180222 0.5
18 2 0.592184 0.0251785 0.5
19 2 0.614384 0.970653 0.5
20 1 0.636012 0.000996561 0.5
21 2 0.672983 0.0308481 0.5
22 2 0.680936 0.00095277 0.5
23 2 0.755829 0.981365 0.5
24 2 0.752469 0.990186 0.5
25 2 0.82009 0.963807 0.5
26 1 0.844715 0.998744 0.5
27 1 0.878387 0.000675886 0.5
28 1 0.899666 0.987183 0.5
29 2 0.920495 0.0309422 0.5
30 2 0.934187 0.0315248 0.5
31 2 0.0362938 0.0459088 0.5
32 1 0.0360354 0.0327588 0.5
33 1 0.0556158 0.0409562 0.5
34 2 0.112799 0.0219664 0.5
35 1 0.127802 0.0271338 0.5
36 1 0.16958 0.0319456 0.5
37 2 0.171829 0.00333494 0.5
38 2 0.208578 0.994708 0.5
39 1 0.254054 0.0441945 0.5
40 2 0.281808 0.0312366 0.5
41 2 0.319053 0.0709494 0.5
42 2 0.361749 0.00702816 0.5
43 2 0.365882 0.0267829 0.5
44 2 0.413847 0.05121 0.5
45 2 0.479932 0.0352597 0.5
46 2 0.512885 0.0644562 0.5
47 2 0.559464 0.0432276 0.5
48 1 0.56427 0.0341691 0.5
49 2 0.623391 0.0406617 0.5
50 1 0.632506 0.0446971 0.5
51 2 0.646499 0.0405719 0.5
52 2 0.669482 0.996645 0.5
53 2 0.72487 0.0171049 0.5
54 2 0.795972 0.0284573 0.5
55 2 0.768527 0.0484519 0.5
56 2 0.806805 0.0484213 0.5
57 2 0.839699 0.0656235 0.5
58 2 0.900212 0.999274 0.5
59 2 0.939036 0.0148595 0.5
60 2 0.991855 0.0212153 0.5
61 2 0.0119375 0.0425411 0.5
62 1 0.0256439 0.0577008 0.5
63 2 0.0517605 0.0839529 0.5
64 2 0.093234 0.0929189 0.5
65 2 0.0998828 0.0778975 0.5
66 2 0.149723 0.0487944 0.5
67 2 0.17733 0.0787651 0.5
68 2 0.199423 0.066929 0.5
69 2 0.281469 0.0893613 0.5
70 1 0.29493 0.0606822 0.5
71 2 0.354534 0.0996746 0.5
72 1 0.371015 0.05806 0.5
73 2 0.382209 0.0848084 0.5
74 2 0.422075 0.0971164 0.5
75 1 0.455014 0.0721425 0.5
76 2 0.469018 0.0985732 0.5
77 2 0.522036 0.0644706 0.5
78 2 0.555389 0.0485272 0.5
79 2 0.586979 0.0422066 0.5
80 2 0.670446 0.034435 0.5
81 1 0.67933 0.0720624 0.5
82 2 0.726359 0.0421597 0.5
83 1 0.73611 0.0657837 0.5
84 1 0.76381 0.0599955 0.5
85 1 0.797409 0.0695734 0.5
86 2 0.831085 0.0513395 0.5
87 2 0.850952 0.0661613 0.5
88 1 0.896504 0.0776208 0.5
89 2 0.958266 0.0790095 0.5
90 2 0.997851 0.096935 0.5
91 2 0.977216 0.0665243 0.5
92 2 0.0527853 0.0970158 0.5
93 2 0.0705832 0.092528 0.5
94 2 0.12941 0.090303 0.5
95 2 0.127858 0.123381 0.5
96 2 0.157063 0.0708962 0.5
97 2 0.168254 0.112433 0.5
98 1 0.241002 0.104049 0.5
99 2 0.30218 0.0813919 0.5
100 2 0.276342 0.0955262 0.5
101 2 0.312858 0.0726362 0.5
102 1 0.372061 0.0982344 0.5
103 2 0.371561 0.109588 0.5
104 2 0.436961 0.103969 0.5
105 1 0.458224 0.107292 0.5
106 1 0.497623 0.106934 0.5
107 2 0.540091 0.130276 0.5
108 2 0.538437 0.0738286 0.5
109 2 0.600739 0.104639 0.5
110 1 0.640735 0.0922549 0.5
111 2 0.687928 0.0962717 0.5
112 2 0.709097 0.0821618 0.5
113 2 0.770334 0.0778483 0.5
114 1 0.760893 0.105832 0.5
115 2 0.781523 0.0701197 0.5
116 2 0.857513 0.0834182 0.5
117 2 0.858494 0.0871444 0.5
118 2 0.91247 0.105253 0.5
119 2 0.915375 0.0854106 0.5
120 2 0.98426 0.0760614 0.5
121 2 0.987485 0.133522 0.5
122 2 0.0429948 0.100682 0.5
123 2 0.0427725 0.150549 0.5
124 2 0.0803034 0.161349 0.5
125 2 0.160058 0.104341 0.5
126 1 0.154298 0.136245 0.5
127 2 0.177903 0.120201 0.5
128 2 0.25295 0.121005 0.5
129 2 0.257757 0.115082 0.5
130 2 0.297238 0.137405 0.5
131 2 0.359823 0.150845 0.5
132 1 0.355453 0.13263 0.5
133 1 0.406981 0.123129 0.5
134 1 0.445045 0.137519 0.5
135 1 0.470739 0.141881 0.5
136 2 0.526596 0.134466 0.5
137 2 0.530762 0.138375 0.5
138 1 0.560296 0.128916 0.5
139 2 0.603845 0.156994 0.5
140 2 0.63506 0.141073 0.5
141 2 0.66489 0.171234 0.5
142 2 0.721291 0.163974 0.5
143 1 0.741096 0.139158 0.5
144 2 0.789035 0.166968 0.5
145 2 0.82468 0.135252 0.5
146 2 0.839496 0.128073 0.5
147 2 0.861245 0.14062 0.5
148 2 0.876442 0.12011 0.5
149 2 0.928572 0.114548 0.5
150 2 0.984382 0.124438 0.5
151 2 0.0106365 0.153692 0.5
152 2 0.0720123 0.165524 0.5
153 2 0.0965677 0.198168 0.5
154 2 0.11428 0.165177 0.5
155 2 0.130383 0.171584 0.5
156 2 0.140731 0.170966 0.5
157 2 0.219182 0.18706 0.5
158 2 0.260434 0.172315 0.5
159 2 0.277191 0.193612 0.5
160 2 0.266296 0.157671 0.5
161 2 0.357247 0.193472 0.5
162 2 0.382568 0.163075 0.5
163 2 0.435922 0.141323 0.5
164 1 0.436955 0.1582 0.5
165 2 0.451845 0.159475 0.5
166 2 0.535874 0.190684 0.5
167 1 0.543032 0.171471 0.5
168 2 0.565961 0.141127 0.5
169 2 0.600449 0.171884 0.5
170 2 0.662686 0.185467 0.5
171 2 0.695931 0.14523 0.5
172 2 0.700556 0.14472 0.5
173 2 0.717003 0.177111 0.5
174 1 0.765843 0.158678 0.5
175 2 0.778692 0.133733 0.5
176 1 0.84219 0.170549 0.5
177 2 0.881689 0.14469 0.5
178 1 0.892017 0.168936 0.5
179 2 0.900788 0.182242 0.5
180 2 0.00294843 0.129811 0.5
181 2 0.0338659 0.18932 0.5
182 2 0.0289375 0.22363 0.5
183 2 0.073269 0.200293 0.5
184 2 0.0853032 0.177967 0.5
185 2 0.163727 0.230889 0.5
186 2 0.168787 0.241338 0.5
187 2 0.231209 0.229117 0.5
188 2 0.201715 0.19768 0.5
189 2 0.237321 0.181251 0.5
190 2 0.27101 0.213981 0.5
191 2 0.353977 0.227931 0.5
192 2 0.337198 0.20715 0.5
193 2 0.399343 0.21322 0.5
194 2 0.443564 0.173273 0.5
195 2 0.43028 0.200871 0.5
196 2 0.46309 0.196311 0.5
197 2 0.55902 0.218159 0.5
198 2 0.601635 0.186075 0.5
199 2 0.616475 0.192533 0.5
200 2 0.605721 0.222278 0.5
201 2 0.670311 0.174037 0.5
202 2 0.690776 0.220983 0.5
203 2 0.766399 0.222042 0.5
204 1 0.763073 0.188982 0.5
205 2 0.769644 0.198971 0.5
206 1 0.843633 0.20679 0.5
207 1 0.873199 0.199045 0.5
208 2 0.886349 0.178527 0.5
209 2 0.921699 0.220533 0.5
210 2 0.967446 0.187943 0.5
211 2 0.0265558 0.261259 0.5
212 2 0.0366277 0.269932 0.5
213 2 0.0992057 0.220208 0.5
214 1 0.112407 0.237111 0.5
215 2 0.147683 0.249748 0.5
216 2 0.163911 0.258029 0.5
217 2 0.165725 0.208105 0.5
218 2 0.198 0.245517 0.5
219 2 0.254984 0.239619 0.5
220 2 0.267937 0.255168 0.5
221 2 0.30485 0.202105 0.5
222 2 0.394621 0.229705 0.5
223 2 0.41235 0.246842 0.5
224 1 0.428572 0.245589 0.5
225 2 0.459119 0.243667 0.5
226 1 0.508836 0.22916 0.5
227 2 0.528691 0.236862 0.5
228 2 0.603046 0.216394 0.5
229 2 0.586533 0.271817 0.5
230 2 0.648684 0.236087 0.5
231 2 0.666609 0.213797 0.5
232 2 0.731802 0.248149 0.5
233 2 0.709812 0.265209 0.5
234 2 0.766009 0.213072 0.5
235 2 0.770959 0.205807 0.5
236 1 0.820518 0.240353 0.5
237 2 0.864245 0.239171 0.5
238 2 0.907357 0.217673 0.5
239 2 0.93067 0.208507 0.5
240 2 0.948998 0.217306 0.5
241 2 0.0362977 0.252133 0.5
242 2 0.0178905 0.261016 0.5
243 2 0.0850478 0.254561 0.5
244 2 0.138377 0.265103 0.5
245 2 0.157706 0.274749 0.5
246 1 0.174304 0.260802 0.5
247 1 0.192691 0.265365 0.5
248 2 0.254338 0.261951 0.5
249 2 0.287543 0.281632 0.5
250 2 0.291934 0.271897 0.5
251 2 0.321433 0.229596 0.5
252 2 0.365927 0.292826 0.5
253 2 0.383492 0.304127 0.5
254 2 0.405537 0.269799 0.5
255 1 0.475365 0.258374 0.5
256 2 0.463742 0.297151 0.5
257 2 0.534416 0.23904 0.5
258 2 0.550973 0.301225 0.5
259 2 0.626422 0.279764 0.5
260 1 0.636016 0.275438 0.5
261 2 0.692152 0.302762 0.5
262 2 0.722497 0.232451 0.5
263 2 0.741807 0.29969 0.5
264 2 0.778522 0.279842 0.5
265 1 0.793149 0.257761 0.5
266 2 0.871267 0.29824 0.5